<?xml version="1.0" encoding="UTF-8"?>

<!-- generated on Sat Oct 20 23:50:00 2018 by Eclipse SUMO Version 1.0.1
<configuration xmlns:xsi="http://www.w3.org/2001/XMLSchema-instance" xsi:noNamespaceSchemaLocation="http://sumo.dlr.de/xsd/sumoConfiguration.xsd">

    <input>
        <net-file value="Data/State_Street_4500_South.net.xml"/>
        <route-files value="Data/State_Street_4500_South.rou.xml"/>
        <additional-files value="Data/State_Street_4500_South.det.xml"/>
    </input>

    <output>
        <tripinfo-output value="tripinfo.xml"/>
    </output>

    <time>
        <begin value="0"/>
    </time>

    <processing>
        <time-to-teleport value="-1"/>
    </processing>

    <report>
        <verbose value="true"/>
        <no-step-log value="true"/>
    </report>

    <traci_server>
        <remote-port value="50898"/>
    </traci_server>

    <gui_only>
        <gui-settings-file value="Data/State_Street_4500_South.settings.xml"/>
    </gui_only>

</configuration>
-->

<tripinfos xmlns:xsi="http://www.w3.org/2001/XMLSchema-instance" xsi:noNamespaceSchemaLocation="http://sumo.dlr.de/xsd/tripinfo_file.xsd">
    <tripinfo id="0" depart="6.00" departLane="gneE6_0" departPos="5.10" departSpeed="0.00" departDelay="0.00" arrival="59.00" arrivalLane="gneE1_0" arrivalPos="282.05" arrivalSpeed="14.36" duration="53.00" routeLength="595.27" waitingTime="0.00" waitingCount="0" stopTime="0.00" timeLoss="11.76" rerouteNo="0" devices="tripinfo_0" vType="passenger" speedFactor="1.06" vaporized=""/>
    <tripinfo id="1" depart="16.00" departLane="gneE2_0" departPos="5.10" departSpeed="0.00" departDelay="0.00" arrival="65.00" arrivalLane="gneE5_0" arrivalPos="282.05" arrivalSpeed="16.64" duration="49.00" routeLength="595.27" waitingTime="0.00" waitingCount="0" stopTime="0.00" timeLoss="12.88" rerouteNo="0" devices="tripinfo_1" vType="passenger" speedFactor="1.20" vaporized=""/>
    <tripinfo id="4" depart="22.00" departLane="gneE6_0" departPos="5.10" departSpeed="0.00" departDelay="0.00" arrival="75.00" arrivalLane="gneE7_0" arrivalPos="282.05" arrivalSpeed="12.98" duration="53.00" routeLength="567.94" waitingTime="0.00" waitingCount="0" stopTime="0.00" timeLoss="10.20" rerouteNo="0" devices="tripinfo_4" vType="passenger" speedFactor="0.96" vaporized=""/>
    <tripinfo id="3" depart="21.00" departLane="gneE2_0" departPos="5.10" departSpeed="0.00" departDelay="3.00" arrival="76.00" arrivalLane="gneE5_0" arrivalPos="282.05" arrivalSpeed="13.91" duration="55.00" routeLength="595.27" waitingTime="0.00" waitingCount="0" stopTime="0.00" timeLoss="12.03" rerouteNo="0" devices="tripinfo_3" vType="passenger" speedFactor="1.01" vaporized=""/>
    <tripinfo id="2" depart="16.00" departLane="gneE6_0" departPos="5.10" departSpeed="0.00" departDelay="0.00" arrival="77.00" arrivalLane="gneE1_0" arrivalPos="282.05" arrivalSpeed="11.51" duration="61.00" routeLength="595.27" waitingTime="0.00" waitingCount="0" stopTime="0.00" timeLoss="10.04" rerouteNo="0" devices="tripinfo_2" vType="passenger" speedFactor="0.84" vaporized=""/>
    <tripinfo id="5" depart="30.00" departLane="gneE6_0" departPos="5.10" departSpeed="0.00" departDelay="0.00" arrival="81.00" arrivalLane="gneE1_0" arrivalPos="282.05" arrivalSpeed="15.34" duration="51.00" routeLength="595.27" waitingTime="0.00" waitingCount="0" stopTime="0.00" timeLoss="12.40" rerouteNo="0" devices="tripinfo_5" vType="passenger" speedFactor="1.13" vaporized=""/>
    <tripinfo id="7" depart="35.00" departLane="gneE6_0" departPos="5.10" departSpeed="0.00" departDelay="1.00" arrival="89.00" arrivalLane="gneE1_0" arrivalPos="282.05" arrivalSpeed="14.28" duration="54.00" routeLength="595.27" waitingTime="0.00" waitingCount="0" stopTime="0.00" timeLoss="12.21" rerouteNo="0" devices="tripinfo_7" vType="passenger" speedFactor="1.03" vaporized=""/>
    <tripinfo id="8" depart="40.00" departLane="gneE6_0" departPos="5.10" departSpeed="0.00" departDelay="4.00" arrival="100.00" arrivalLane="gneE3_0" arrivalPos="282.05" arrivalSpeed="11.86" duration="60.00" routeLength="597.64" waitingTime="0.00" waitingCount="0" stopTime="0.00" timeLoss="10.38" rerouteNo="0" devices="tripinfo_8" vType="passenger" speedFactor="0.88" vaporized=""/>
    <tripinfo id="11" depart="60.00" departLane="gneE6_0" departPos="5.10" departSpeed="0.00" departDelay="0.00" arrival="112.00" arrivalLane="gneE7_0" arrivalPos="282.05" arrivalSpeed="14.29" duration="52.00" routeLength="567.94" waitingTime="0.00" waitingCount="0" stopTime="0.00" timeLoss="11.94" rerouteNo="0" devices="tripinfo_11" vType="passenger" speedFactor="1.03" vaporized=""/>
    <tripinfo id="9" depart="58.00" departLane="gneE2_0" departPos="5.10" departSpeed="0.00" departDelay="0.00" arrival="116.00" arrivalLane="gneE5_0" arrivalPos="282.05" arrivalSpeed="12.48" duration="58.00" routeLength="595.27" waitingTime="0.00" waitingCount="0" stopTime="0.00" timeLoss="11.30" rerouteNo="0" devices="tripinfo_9" vType="passenger" speedFactor="0.92" vaporized=""/>
    <tripinfo id="10" depart="63.00" departLane="gneE2_0" departPos="5.10" departSpeed="0.00" departDelay="3.00" arrival="118.00" arrivalLane="gneE5_0" arrivalPos="282.05" arrivalSpeed="13.85" duration="55.00" routeLength="595.27" waitingTime="0.00" waitingCount="0" stopTime="0.00" timeLoss="11.81" rerouteNo="0" devices="tripinfo_10" vType="passenger" speedFactor="1.01" vaporized=""/>
    <tripinfo id="13" depart="72.00" departLane="gneE6_0" departPos="5.10" departSpeed="0.00" departDelay="0.00" arrival="126.00" arrivalLane="gneE3_1" arrivalPos="282.05" arrivalSpeed="14.48" duration="54.00" routeLength="597.64" waitingTime="0.00" waitingCount="0" stopTime="0.00" timeLoss="12.80" rerouteNo="0" devices="tripinfo_13" vType="passenger" speedFactor="1.06" vaporized=""/>
    <tripinfo id="14" depart="72.00" departLane="gneE0_0" departPos="5.10" departSpeed="0.00" departDelay="0.00" arrival="128.00" arrivalLane="gneE1_0" arrivalPos="282.05" arrivalSpeed="15.09" duration="56.00" routeLength="567.94" waitingTime="0.00" waitingCount="0" stopTime="0.00" timeLoss="18.16" rerouteNo="0" devices="tripinfo_14" vType="passenger" speedFactor="1.10" vaporized=""/>
    <tripinfo id="16" depart="104.00" departLane="gneE6_0" departPos="5.10" departSpeed="0.00" departDelay="0.00" arrival="160.00" arrivalLane="gneE1_0" arrivalPos="282.05" arrivalSpeed="13.25" duration="56.00" routeLength="595.27" waitingTime="0.00" waitingCount="0" stopTime="0.00" timeLoss="10.91" rerouteNo="0" devices="tripinfo_16" vType="passenger" speedFactor="0.97" vaporized=""/>
    <tripinfo id="17" depart="114.00" departLane="gneE2_0" departPos="5.10" departSpeed="0.00" departDelay="0.00" arrival="164.00" arrivalLane="gneE5_0" arrivalPos="282.05" arrivalSpeed="16.04" duration="50.00" routeLength="595.27" waitingTime="0.00" waitingCount="0" stopTime="0.00" timeLoss="12.44" rerouteNo="0" devices="tripinfo_17" vType="passenger" speedFactor="1.16" vaporized=""/>
    <tripinfo id="18" depart="116.00" departLane="gneE6_0" departPos="5.10" departSpeed="0.00" departDelay="0.00" arrival="167.00" arrivalLane="gneE3_1" arrivalPos="282.05" arrivalSpeed="15.64" duration="51.00" routeLength="597.64" waitingTime="0.00" waitingCount="0" stopTime="0.00" timeLoss="12.76" rerouteNo="0" devices="tripinfo_18" vType="passenger" speedFactor="1.13" vaporized=""/>
    <tripinfo id="19" depart="120.00" departLane="gneE2_0" departPos="5.10" departSpeed="0.00" departDelay="0.00" arrival="176.00" arrivalLane="gneE5_0" arrivalPos="282.05" arrivalSpeed="13.38" duration="56.00" routeLength="595.27" waitingTime="0.00" waitingCount="0" stopTime="0.00" timeLoss="10.96" rerouteNo="0" devices="tripinfo_19" vType="passenger" speedFactor="0.97" vaporized=""/>
    <tripinfo id="20" depart="128.00" departLane="gneE6_0" departPos="5.10" departSpeed="0.00" departDelay="0.00" arrival="186.00" arrivalLane="gneE1_0" arrivalPos="282.05" arrivalSpeed="12.46" duration="58.00" routeLength="595.27" waitingTime="0.00" waitingCount="0" stopTime="0.00" timeLoss="10.35" rerouteNo="0" devices="tripinfo_20" vType="passenger" speedFactor="0.91" vaporized=""/>
    <tripinfo id="21" depart="150.00" departLane="gneE6_0" departPos="5.10" departSpeed="0.00" departDelay="0.00" arrival="199.00" arrivalLane="gneE7_0" arrivalPos="282.05" arrivalSpeed="15.62" duration="49.00" routeLength="567.94" waitingTime="0.00" waitingCount="0" stopTime="0.00" timeLoss="12.65" rerouteNo="0" devices="tripinfo_21" vType="passenger" speedFactor="1.13" vaporized=""/>
    <tripinfo id="23" depart="158.00" departLane="gneE2_0" departPos="5.10" departSpeed="0.00" departDelay="0.00" arrival="211.00" arrivalLane="gneE7_1" arrivalPos="282.05" arrivalSpeed="15.02" duration="53.00" routeLength="597.64" waitingTime="0.00" waitingCount="0" stopTime="0.00" timeLoss="12.73" rerouteNo="0" devices="tripinfo_23" vType="passenger" speedFactor="1.08" vaporized=""/>
    <tripinfo id="25" depart="174.00" departLane="gneE2_0" departPos="5.10" departSpeed="0.00" departDelay="0.00" arrival="226.00" arrivalLane="gneE5_0" arrivalPos="282.05" arrivalSpeed="14.88" duration="52.00" routeLength="595.27" waitingTime="0.00" waitingCount="0" stopTime="0.00" timeLoss="12.13" rerout