<?xml version="1.0" encoding="UTF-8"?>

<!-- generated on Mon Dec 10 18:53:53 2018 by SUMO Version 0.32.0
<?xml version="1.0" encoding="UTF-8"?>

<configuration xmlns:xsi="http://www.w3.org/2001/XMLSchema-instance" xsi:noNamespaceSchemaLocation="http://sumo.dlr.de/xsd/sumoConfiguration.xsd">

    <input>
        <net-file value="Data/State_Street_4500_South.net.xml"/>
        <route-files value="Data/State_Street_4500_South.rou.xml"/>
        <additional-files value="Data/State_Street_4500_South.det.xml"/>
    </input>

    <output>
        <tripinfo-output value="tripinfo.xml"/>
    </output>

    <time>
        <begin value="0"/>
    </time>

    <processing>
        <time-to-teleport value="-1"/>
    </processing>

    <report>
        <verbose value="true"/>
        <no-step-log value="true"/>
    </report>

    <traci_server>
        <remote-port value="41085"/>
    </traci_server>

    <gui_only>
        <gui-settings-file value="Data/State_Street_4500_South.settings.xml"/>
    </gui_only>

</configuration>
-->

<tripinfos xmlns:xsi="http://www.w3.org/2001/XMLSchema-instance" xsi:noNamespaceSchemaLocation="http://sumo.dlr.de/xsd/tripinfo_file.xsd">
    <tripinfo id="1" depart="3.00" departLane="gneE6_0" departPos="0.00" departSpeed="0.00" departDelay="0.00" arrival="58.00" arrivalLane="gneE1_0" arrivalPos="282.05" arrivalSpeed="13.72" duration="55.00" routeLength="600.37" waitSteps="0" timeLoss="11.07" rerouteNo="0" devices="tripinfo_1" vType="passenger" speedFactor="1.00" vaporized=""/>
    <tripinfo id="3" depart="14.00" departLane="gneE2_0" departPos="0.00" departSpeed="0.00" departDelay="0.00" arrival="70.00" arrivalLane="gneE5_0" arrivalPos="282.05" arrivalSpeed="13.55" duration="56.00" routeLength="600.37" waitSteps="0" timeLoss="11.94" rerouteNo="0" devices="tripinfo_3" vType="passenger" speedFactor="1.00" vaporized=""/>
    <tripinfo id="4" depart="19.00" departLane="gneE2_0" departPos="0.00" departSpeed="0.00" departDelay="3.00" arrival="74.00" arrivalLane="gneE5_0" arrivalPos="282.05" arrivalSpeed="13.87" duration="55.00" routeLength="600.37" waitSteps="0" timeLoss="11.20" rerouteNo="0" devices="tripinfo_4" vType="passenger" speedFactor="1.00" vaporized=""/>
    <tripinfo id="10" depart="26.00" departLane="gneE2_0" departPos="0.00" departSpeed="0.00" departDelay="0.00" arrival="79.00" arrivalLane="gneE3_0" arrivalPos="282.05" arrivalSpeed="13.49" duration="53.00" routeLength="573.04" waitSteps="0" timeLoss="11.71" rerouteNo="0" devices="tripinfo_10" vType="passenger" speedFactor="1.00" vaporized=""/>
    <tripinfo id="9" depart="25.00" departLane="gneE0_0" departPos="0.00" departSpeed="0.00" departDelay="0.00" arrival="84.00" arrivalLane="gneE1_0" arrivalPos="282.05" arrivalSpeed="13.51" duration="59.00" routeLength="573.04" waitSteps="0" timeLoss="17.30" rerouteNo="0" devices="tripinfo_9" vType="passenger" speedFactor="1.00" vaporized=""/>
    <tripinfo id="12" depart="31.00" departLane="gneE0_0" departPos="0.00" departSpeed="0.00" departDelay="0.00" arrival="87.00" arrivalLane="gneE1_0" arrivalPos="282.05" arrivalSpeed="13.73" duration="56.00" routeLength="573.04" waitSteps="0" timeLoss="14.18" rerouteNo="0" devices="tripinfo_12" vType="passenger" speedFactor="1.00" vaporized=""/>
    <tripinfo id="11" depart="31.00" departLane="gneE2_0" departPos="0.00" departSpeed="0.00" departDelay="3.00" arrival="87.00" arrivalLane="gneE5_0" arrivalPos="282.05" arrivalSpeed="13.49" duration="56.00" routeLength="600.37" waitSteps="0" timeLoss="12.45" rerouteNo="0" devices="tripinfo_11" vType="passenger" speedFactor="1.00" vaporized=""/>
    <tripinfo id="13" depart="37.00" departLane="gneE2_0" departPos="0.00" departSpeed="0.00" departDelay="3.00" arrival="91.00" arrivalLane="gneE3_0" arrivalPos="282.05" arrivalSpeed="13.78" duration="54.00" routeLength="573.04" waitSteps="0" timeLoss="11.87" rerouteNo="0" devices="tripinfo_13" vType="passenger" speedFactor="1.00" vaporized=""/>
    <tripinfo id="14" depart="42.00" departLane="gneE2_0" departPos="0.00" departSpeed="0.00" departDelay="6.00" arrival="97.00" arrivalLane="gneE5_0" arrivalPos="282.05" arrivalSpeed="13.79" duration="55.00" routeLength="600.37" waitSteps="0" timeLoss="11.45" rerouteNo="0" devices="tripinfo_14" vType="passenger" speedFactor="1.00" vaporized=""/>
    <tripinfo id="16" depart="45.00" departLane="gneE0_0" departPos="0.00" departSpeed="0.00" departDelay="0.00" arrival="102.00" arrivalLane="gneE1_0" arrivalPos="282.05" arrivalSpeed="13.70" duration="57.00" routeLength="573.04" waitSteps="0" timeLoss="15.06" rerouteNo="0" devices="tripinfo_16" vType="passenger" speedFactor="1.00" vaporized=""/>
    <tripinfo id="15" depart="47.00" departLane="gneE2_0" departPos="0.00" departSpeed="0.00" departDelay="3.00" arrival="102.00" arrivalLane="gneE5_0" arrivalPos="282.05" arrivalSpeed="13.75" duration="55.00" routeLength="600.37" waitSteps="0" timeLoss="11.48" rerouteNo="0" devices="tripinfo_15" vType="passenger" speedFactor="1.00" vaporized=""/>
    <tripinfo id="18" depart="52.00" departLane="gneE2_0" departPos="0.00" departSpeed="0.00" departDelay="0.00" arrival="108.00" arrivalLane="gneE5_0" arrivalPos="282.05" arrivalSpeed="13.62" duration="56.00" routeLength="600.37" waitSteps="0" timeLoss="12.05" rerouteNo="0" devices="tripinfo_18" vType="passenger" speedFactor="1.00" vaporized=""/>
    <tripinfo id="21" depart="61.00" departLane="gneE2_0" departPos="0.00" departSpeed="0.00" departDelay="0.00" arrival="117.00" arrivalLane="gneE5_0" arrivalPos="282.05" arrivalSpeed="13.79" duration="56.00" routeLength="600.37" waitSteps="0" timeLoss="12.42" rerouteNo="0" devices="tripinfo_21" vType="passenger" speedFactor="1.00" vaporized=""/>
    <tripinfo id="23" depart="69.00" departLane="gneE6_0" departPos="0.00" departSpeed="0.00" departDelay="0.00" arrival="125.00" arrivalLane="gneE1_0" arrivalPos="282.05" arrivalSpeed="13.54" duration="56.00" routeLength="600.37" waitSteps="0" timeLoss="11.87" rerouteNo="0" devices="tripinfo_23" vType="passenger" speedFactor="1.00" vaporized=""/>
    <tripinfo id="24" depart="74.00" departLane="gneE6_0" departPos="0.00" departSpeed="0.00" departDelay="3.00" arrival="127.00" arrivalLane="gneE7_0" arrivalPos="282.05" arrivalSpeed="13.56" duration="53.00" routeLength="573.04" waitSteps="0" timeLoss="11.06" rerouteNo="0" devices="tripinfo_24" vType="passenger" speedFactor="1.00" vaporized=""/>
    <tripinfo id="25" depart="72.00" departLane="gneE2_0" departPos="0.00" departSpeed="0.00" departDelay="0.00" arrival="128.00" arrivalLane="gneE5_0" arrivalPos="282.05" arrivalSpeed="13.53" duration="56.00" routeLength="600.37" waitSteps="0" timeLoss="11.85" rerouteNo="0" devices="tripinfo_25" vType="passenger" speedFactor="1.00" vaporized=""/>
    <tripinfo id="26" depart="79.00" departLane="gneE2_0" departPos="0.00" departSpeed="0.00" departDelay="0.00" arrival="133.00" arrivalLane="gneE5_0" arrivalPos="282.05" arrivalSpeed="13.74" duration="54.00" routeLength="600.37" waitSteps="0" timeLoss="10.60" rerouteNo="0" devices="tripinfo_26" vType="passenger" speedFactor="1.00" vaporized=""/>
    <tripinfo id="28" depart="83.00" departLane="gneE6_0" departPos="0.00" departSpeed="0.00" departDelay="0.00" arrival="136.00" arrivalLane="gneE7_0" arrivalPos="282.05" arrivalSpeed="13.84" duration="53.00" routeLength="573.04" waitSteps="0" timeLoss="11.55" rerouteNo="0" devices="tripinfo_28" vType="passenger" speedFactor="1.00" vaporized=""/>
    <tripinfo id="27" depart="84.00" departLane="gneE2_0" departPos="0.00" departSpeed="0.00" departDelay="3.00" arrival="138.00" arrivalLane="gneE5_0" arrivalPos="282.05" arrivalSpeed="13.84" duration="54.00" routeLength="600.37" waitSteps="0" timeLoss="10.37" rerouteNo="0" devices="tripinfo_27" vType="passenger" speedFactor="1.00" vaporized=""/>
    <tripinfo id="30" depart="90.00" departLane="gneE2_0" departPos="0.00" departSpeed="0.00" departDelay="0.00" arrival="143.00" arrivalLane="gneE3_0" arrivalPos="282.05" arrivalSpeed="13.70" duration="53.00" routeLength="573.04" waitSteps="0" timeLoss="11.64" rerouteNo="0" devices="tripinfo_30" vType="passenger" speedFactor="1.00" vaporized=""/>
    <tripinfo id="31" depart="95.00" departLane="gneE2_0" departPos="0.00" departSpeed="0.00" departDelay="4.00" arrival="150.00" arrivalLane="gneE5_0" arrivalPos="282.05" arrivalSpeed="13.69" duration="55.00" routeLength="600.37" waitSteps="0" timeLoss="10.89" rerouteNo="0" devices="tripinfo_31" vType="passenger" speedFactor="1.00" vaporized=""/>
    <tripinfo id="36" depart="103.00" departLane="gneE6_0" departPos="0.00" departSpeed="0.00" departDelay="0.00" arrival="156.00" arrivalLane="gneE7_0" arrivalPos="282.05" arrivalSpeed="13.73" duration="53.00" routeLength="573.04" waitSteps="0" timeLoss="11.27" rerouteNo="0" devices="tripinfo_36" vType="passenger" speedFactor="1.00" vaporized=""/>
    <tripinfo id="34" depart="105.00" departLane="gneE2_0" departPos="0.00" departSpeed="0.00" departDelay="3.00" arrival="158.00" arrivalLane="gneE3_0" arrivalPos="282.05" arrivalSpeed="13.56" duration="53.00" routeLength="573.04" waitSteps="0" timeLoss="11.71" rerouteNo="0" devices="tripinfo_34" vType="passenger" speedFactor="1.00" vaporized=""/>
    <tripinfo id="35" depart="110.00" departLane="gneE2_0" departPos="0.00" departSpeed="0.00" departDelay="7.00" arrival="165.00" arrivalLane="gneE5_0" arrivalPos="282.05" arrivalSpeed="13.68" duration="55.00" routeLength="600.37" waitSteps="0" timeLoss="11.00" rerouteNo="0" devices="tripinfo_35" vType="passenger" speedFactor="1.00" vaporized=""/>
    <tripinfo id="37" depart="110.00" departLane="gneE6_0" departPos="0.00" departSpeed="0.00" departDelay="0.00" arrival="166.00" arrivalLane="gneE1_0" arrivalPos="282.05" arrivalSpeed="13.79" duration="56.00" routeLength="600.37" waitSteps="0" timeLoss="12.24" rerouteNo="0" devices="tripinfo_37" vType="passenger" speedFactor="1.00" vaporized=""/>
    <tripinfo id="38" depart="116.00" departLane="gneE2_0" departPos="0.00" departSpeed="0.00" departDelay="0.00" arrival="171.00" arrivalLane="gneE5_0" arrivalPos="282.05" arrivalSpeed="13.65" duration="55.00" routeLength="600.37" waitSteps="0" timeLoss="11.11" rerouteNo="0" devices="tripinfo_38" vType="passenger" speedFactor="1.00" vaporized=""/>
    <tripinfo id="39" depart="128.00" departLane="gneE2_0" departPos="0.00" departSpeed="0.00" departDelay="0.00" arrival="184.00" arrivalLane="gneE5_0" arrivalPos="282.05" arrivalSpeed="13.76" duration="56.00" routeLength="600.37" waitSteps="0" timeLoss="12.03" rerouteNo="0" devices="tripinfo_39" vType="passenger" speedFactor="1.00" vaporized=""/>
    <tripinfo id="41" depart="135.00" departLane="gneE6_0" departPos="0.00" departSpeed="0.00" departDelay="0.00" arrival="190.00" arrivalLane="gneE1_0" arrivalPos="282.05" arrivalSpeed="13.54" duration="55.00" routeLength="600.37" waitSteps="0" timeLoss="10.98" rerouteNo="0" devices="tripinfo_41" vType="passenger" speedFactor="1.00" vaporized=""/>
    <tripinfo id="43" depart="140.00" departLane="gneE6_0" departPos="0.00" departSpeed="0.00" departDelay="2.00" arrival="195.00" arrivalLane="gneE1_0" arrivalPos="282.05" arrivalSpeed="13.76" duration="55.00" routeLength="600.37" waitSteps="0" timeLoss="11.28" rerouteNo="0" devices="tripinfo_43" vType="passenger" speedFactor="1.00" vaporized=""/>
    <tripinfo id="45" depart="145.00" departLane="gneE6_0" departPos="0.00" departSpeed="0.00" departDelay="3.00" arrival="200.00" arrivalLane="gneE1_0" arrivalPos="282.05" arrivalSpeed="13.72" duration="55.00" routeLength="600.37" waitSteps="0" timeLoss="11.22" rerouteNo="0" devices="tripinfo_45" vType="passenger" speedFactor="1.00" vaporized=""/>
    <tripinfo id="46" depart="150.00" departLane="gneE2_0" departPos="0.00" departSpeed="0.00" departDelay="0.00" arrival="206.00" arrivalLane="gneE5_0" arrivalPos="282.05" arrivalSpeed="13.85" duration="56.00" routeLength="600.37" waitSteps="0" timeLoss="12.06" rerouteNo="0" devices="tripinfo_46" vType="passenger" speedFactor="1.00" vaporized=""/>
    <tripinfo id="49" depart="156.00" departLane="gneE2_0" departPos="0.00" departSpeed="0.00" departDelay="0.00" arrival="212.00" arrivalLane="gneE5_0" arrivalPos="282.05" arrivalSpeed="13.74" duration="56.00" routeLength="600.37" waitSteps="0" timeLoss="11.99" rerouteNo="0" devices="tripinfo_49" vType="passenger" speedFactor="1.00" vaporized=""/>
    <tripinfo id="51" depart="159.00" departLane="gneE0_0" departPos="0.00" departSpeed="0.00" departDelay="1.00" arrival="217.00" arrivalLane="gneE1_0" arrivalPos="282.05" arrivalSpeed="13.61" duration="58.00" routeLength="573.04" waitSteps="0" timeLoss="16.40" rerouteNo="0" devices="tripinfo_51" vType="passenger" speedFactor="1.00" vaporized=""/>
    <tripinfo id="52" depart="167.00" departLane="gneE6_0" departPos="0.00" departSpeed="0.00" departDelay="0.00" arrival="222.00" arrivalLane="gneE1_0" arrivalPos="282.05" arrivalSpeed="13.74" duration="55.00" routeLength="600.37" waitSteps="0" timeLoss="11.43" rerouteNo="0" devices="tripinfo_52" vType="passenger" speedFactor="1.00" vaporized=""/>
    <tripinfo id="55" depart="184.00" departLane="gneE2_0" departPos="0.00" departSpeed="0.00" departDelay="0.00" arrival="239.00" arrivalLane="gneE5_0" arrivalPos="282.05" arrivalSpeed="13.78" duration="55.00" routeLength="600.37" waitSteps="0" timeLoss="11.34" rerouteNo="0" devices="tripinfo_55" vType="passenger" speedFactor="1.00" vaporized=""/>
    <tripinfo id="60" depart="210.00" departLane="gneE2_0" departPos="0.00" departSpeed="0.00" departDelay="0.00" arrival="266.00" arrivalLane="gneE5_0" arrivalPos="282.05" arrivalSpeed="13.74" duration="56.00" routeLength="600.37" waitSteps="0" timeLoss="11.87" rerouteNo="0" devices="tripinfo_60" vType="passenger" speedFactor="1.00" vaporized=""/>
    <tripinfo id="62" depart="216.00" departLane="gneE6_0" departPos="0.00" departSpeed="0.00" departDelay="4.00" arrival="271.00" arrivalLane="gneE1_0" arrivalPos="282.05" arrivalSpeed="13.61" duration="55.00" routeLength="600.37" waitSteps="0" timeLoss="11.30" rerouteNo="0" devices="tripinfo_62" vType="passenger" speedFactor="1.00" vaporized=""/>
    <tripinfo id="66" depart="224.00" departLane="gneE2_0" departPos="0.00" departSpeed="0.00" departDelay="0.00" arrival="276.00" arrivalLane="gneE3_0" arrivalPos="282.05" arrivalSpeed="13.87" duration="52.00" routeLength="573.04" waitSteps="0" timeLoss="10.58" rerouteNo="0" devices="tripinfo_66" vType="passenger" speedFactor="1.00" vaporized=""/>
    <tripinfo id="67" depart="226.00" departLane="gneE6_0" departPos="0.00" departSpeed="0.00" departDelay="0.00" arrival="279.00" arrivalLane="gneE7_0" arrivalPos="282.05" arrivalSpeed="13.79" duration="53.00" routeLength="573.04" waitSteps="0" timeLoss="11.49" rerouteNo="0" devices="tripinfo_67" vType="passenger" speedFactor="1.00" vaporized=""/>
    <tripinfo id="69" depart="229.00" departLane="gneE2_0" departPos="0.00" departSpeed="0.00" departDelay="1.00" arrival="283.00" arrivalLane="gneE3_0" arrivalPos="282.05" arrivalSpeed="13.76" duration="54.00" routeLength="573.04" waitSteps="0" timeLoss="12.00" rerouteNo="0" devices="tripinfo_69" vType="passenger" speedFactor="1.00" vaporized=""/>
    <tripinfo id="68" depart="231.00" departLane="gneE6_0" departPos="0.00" departSpeed="0.00" departDelay="4.00" arrival="286.00" arrivalLane="gneE1_0" arrivalPos="282.05" arrivalSpeed="13.54" duration="55.00" routeLength="600.37" waitSteps="0" timeLoss="11.23" rerouteNo="0" devices="tripinfo_68" vType="passenger" speedFactor="1.00" vaporized=""/>
    <tripinfo id="71" depart="240.00" departLane="gneE6_0" departPos="0.00" departSpeed="0.00" departDelay="0.00" arrival="296.00" arrivalLane="gneE1_0" arrivalPos="282.05" arrivalSpeed="13.56" duration="56.00" routeLength="600.37" waitSteps="0" timeLoss="12.09" rerouteNo="0" devices="tripinfo_71" vType="passenger" speedFactor="1.00" vaporized=""/>
    <tripinfo id="73" depart="243.00" departLane="gneE2_0" departPos="0.00" departSpeed="0.00" departDelay="0.00" arrival="300.00" arrivalLane="gneE5_0" arrivalPos="282.05" arrivalSpeed="13.71" duration="57.00" routeLength="600.37" waitSteps="0" timeLoss="12.90" rerouteNo="0" devices="tripinfo_73" vType="passenger" speedFactor="1.00" vaporized=""/>
    <tripinfo id="74" depart="249.00" departLane="gneE2_0" departPos="0.00" departSpeed="0.00" departDelay="0.00" arrival="305.00" arrivalLane="gneE5_0" arrivalPos="282.05" arrivalSpeed="13.69" duration="56.00" routeLength="600.37" waitSteps="0" timeLoss="12.27" rerouteNo="0" devices="tripinfo_74" vType="passenger" speedFactor="1.00" vaporized=""/>
    <tripinfo id="76" depart="259.00" departLane="gneE6_0" departPos="0.00" departSpeed="0.00" departDelay="0.00" arrival="312.00" arrivalLane="gneE7_0" arrivalPos="282.05" arrivalSpeed="13.78" duration="53.00" routeLength="573.04" waitSteps="0" timeLoss="11.39" rerouteNo="0" devices="tripinfo_76" vType="passenger" speedFactor="1.00" vaporized=""/>
    <tripinfo id="77" depart="264.00" departLane="gneE6_0" departPos="0.00" departSpeed="0.00" departDelay="2.00" arrival="317.00" arrivalLane="gneE7_0" arrivalPos="282.05" arrivalSpeed="13.78" duration="53.00" routeLength="573.04" waitSteps="0" timeLoss="10.83" rerouteNo="0" devices="tripinfo_77" vType="passenger" speedFactor="1.00" vaporized=""/>
    <tripinfo id="78" depart="267.00" departLane="gneE0_0" departPos="0.00" departSpeed="0.00" departDelay="0.00" arrival="323.00" arrivalLane="gneE1_0" arrivalPos="282.05" arrivalSpeed="13.64" duration="56.00" routeLength="573.04" waitSteps="0" timeLoss="14.70" rerouteNo="0" devices="tripinfo_78" vType="passenger" speedFactor="1.00" vaporized=""/>
    <tripinfo id="80" depart="281.00" departLane="gneE6_0" departPos="0.00" departSpeed="0.00" departDelay="0.00" arrival="336.00" arrivalLane="gneE1_0" arrivalPos="282.05" arrivalSpeed="13.51" duration="55.00" routeLength="600.37" waitSteps="0" timeLoss="10.95" rerouteNo="0" devices="tripinfo_80" vType="passenger" speedFactor="1.00" vaporized=""/>
    <tripinfo id="81" depart="287.00" departLane="gneE2_0" departPos="0.00" departSpeed="0.00" departDelay="0.00" arrival="341.00" arrivalLane="gneE3_0" arrivalPos="282.05" arrivalSpeed="13.79" duration="54.00" routeLength="573.04" waitSteps="0" timeLoss="11.89" rerouteNo="0" devices="tripinfo_81" vType="passenger" speedFactor="1.00" vaporized=""/>
    <tripinfo id="82" depart="292.00" departLane="gneE2_0" departPos="0.00" departSpeed="0.00" departDelay="4.00" arrival="347.00" arrivalLane="gneE5_0" arrivalPos="282.05" arrivalSpeed="13.79" duration="55.00" routeLength="600.37" waitSteps="0" timeLoss="10.94" rerouteNo="0" devices="tripinfo_82" vType="passenger" speedFactor="1.00" vaporized=""/>
    <tripinfo id="83" depart="297.00" departLane="gneE2_0" departPos="0.00" departSpeed="0.00" departDelay="5.00" arrival="353.00" arrivalLane="gneE5_0" arrivalPos="282.05" arrivalSpeed="13.85" duration="56.00" routeLength="600.37" waitSteps="0" timeLoss="12.03" rerouteNo="0" devices="tripinfo_83" vType="passenger" speedFactor="1.00" vaporized=""/>
    <tripinfo id="85" depart="300.00" departLane="gneE6_0" departPos="0.00" departSpeed="0.00" departDelay="0.00" arrival="356.00" arrivalLane="gneE1_0" arrivalPos="282.05" arrivalSpeed="13.60" duration="56.00" routeLength="600.37" waitSteps="0" timeLoss="12.41" rerouteNo="0" devices="tripinfo_85" vType="passenger" speedFactor="1.00" vaporized=""/>
    <tripinfo id="84" depart="302.00" departLane="gneE2_0" departPos="0.00" departSpeed="0.00" departDelay="2.00" arrival="357.00" arrivalLane="gneE5_0" arrivalPos="282.05" arrivalSpeed="13.74" duration="55.00" routeLength="600.37" waitSteps="0" timeLoss="11.70" rerouteNo="0" devices="tripinfo_84" vType="passenger" speedFactor="1.00" vaporized=""/>
    <tripinfo id="87" depart="312.00" departLane="gneE2_0" departPos="0.00" departSpeed="0.00" departDelay="5.00" arrival="366.00" arrivalLane="gneE5_0" arrivalPos="282.05" arrivalSpeed="13.62" duration="54.00" routeLength="600.37" waitSteps="0" timeLoss="10.72" rerouteNo="0" devices="tripinfo_87" vType="passenger" speedFactor="1.00" vaporized=""/>
    <tripinfo id="88" depart="313.00" departLane="gneE6_0" departPos="0.00" departSpeed="0.00" departDelay="0.00" arrival="368.00" arrivalLane="gneE1_0" arrivalPos="282.05" arrivalSpeed="13.70" duration="55.00" routeLength="600.37" waitSteps="0" timeLoss="11.71" rerouteNo="0" devices="tripinfo_88" vType="passenger" speedFactor="1.00" vaporized=""/>
    <tripinfo id="91" depart="319.00" departLane="gneE6_0" departPos="0.00" departSpeed="0.00" departDelay="0.00" arrival="371.00" arrivalLane="gneE7_0" arrivalPos="282.05" arrivalSpeed="13.51" duration="52.00" routeLength="573.04" waitSteps="0" timeLoss="10.71" rerouteNo="0" devices="tripinfo_91" vType="passenger" speedFactor="1.00" vaporized=""/>
    <tripinfo id="93" depart="327.00" departLane="gneE6_0" departPos="0.00" departSpeed="0.00" departDelay="0.00" arrival="382.00" arrivalLane="gneE1_0" arrivalPos="282.05" arrivalSpeed="13.84" duration="55.00" routeLength="600.37" waitSteps="0" timeLoss="11.24" rerouteNo="0" devices="tripinfo_93" vType="passenger" speedFactor="1.00" vaporized=""/>
    <tripinfo id="95" depart="332.00" departLane="gneE6_0" departPos="0.00" departSpeed="0.00" departDelay="2.00" arrival="388.00" arrivalLane="gneE1_0" arrivalPos="282.05" arrivalSpeed="13.58" duration="56.00" routeLength="600.37" waitSteps="0" timeLoss="11.96" rerouteNo="0" devices="tripinfo_95" vType="passenger" speedFactor="1.00" vaporized=""/>
    <tripinfo id="97" depart="336.00" departLane="gneE2_0" departPos="0.00" departSpeed="0.00" departDelay="3.00" arrival="392.00" arrivalLane="gneE5_0" arrivalPos="282.05" arrivalSpeed="13.79" duration="56.00" routeLength="600.37" waitSteps="0" timeLoss="11.95" rerouteNo="0" devices="tripinfo_97" vType="passenger" speedFactor="1.00" vaporized=""/>
    <tripinfo id="98" depart="337.00" departLane="gneE6_0" departPos="0.00" departSpeed="0.00" departDelay="3.00" arrival="392.00" arrivalLane="gneE1_0" arrivalPos="282.05" arrivalSpeed="13.84" duration="55.00" routeLength="600.37" waitSteps="0" timeLoss="11.49" rerouteNo="0" devices="tripinfo_98" vType="passenger" speedFactor="1.00" vaporized=""/>
    <tripinfo id="99" depart="341.00" departLane="gneE2_0" departPos="0.00" departSpeed="0.00" departDelay="5.00" arrival="397.00" arrivalLane="gneE5_0" arrivalPos="282.05" arrivalSpeed="13.77" duration="56.00" routeLength="600.37" waitSteps="0" timeLoss="12.11" rerouteNo="0" devices="tripinfo_99" vType="passenger" speedFactor="1.00" vaporized=""/>
    <tripinfo id="100" depart="344.00" departLane="gneE0_0" departPos="0.00" departSpeed="0.00" departDelay="0.00" arrival="401.00" arrivalLane="gneE1_0" arrivalPos="282.05" arrivalSpeed="13.86" duration="57.00" routeLength="573.04" waitSteps="0" timeLoss="15.45" rerouteNo="0" devices="tripinfo_100" vType="passenger" speedFactor="1.00" vaporized=""/>
    <tripinfo id="102" depart="350.00" departLane="gneE0_0" departPos="0.00" departSpeed="0.00" departDelay="0.00" arrival="404.00" arrivalLane="gneE1_0" arrivalPos="282.05" arrivalSpeed="13.64" duration="54.00" routeLength="573.04" waitSteps="0" timeLoss="12.73" rerouteNo="0" devices="tripinfo_102" vType="passenger" speedFactor="1.00" vaporized=""/>
    <tripinfo id="101" depart="350.00" departLane="gneE6_0" departPos="0.00" departSpeed="0.00" departDelay="0.00" arrival="406.00" arrivalLane="gneE1_1" arrivalPos="282.05" arrivalSpeed="13.56" duration="56.00" routeLength="600.37" waitSteps="0" timeLoss="11.86" rerouteNo="0" devices="tripinfo_101" vType="passenger" speedFactor="1.00" vaporized=""/>
    <tripinfo id="104" depart="358.00" departLane="gneE2_0" departPos="0.00" departSpeed="0.00" departDelay="0.00" arrival="414.00" arrivalLane="gneE5_0" arrivalPos="282.05" arrivalSpeed="13.69" duration="56.00" routeLength="600.37" waitSteps="0" timeLoss="12.34" rerouteNo="0" devices="tripinfo_104" vType="passenger" speedFactor="1.00" vaporized=""/>
    <tripinfo id="105" depart="360.00" departLane="gneE6_0" departPos="0.00" departSpeed="0.00" departDelay="0.00" arrival="415.00" arrivalLane="gneE1_0" arrivalPos="282.05" arrivalSpeed="13.50" duration="55.00" routeLength="600.37" waitSteps="0" timeLoss="11.38" rerouteNo="0" devices="tripinfo_105" vType="passenger" speedFactor="1.00" vaporized=""/>
    <tripinfo id="106" depart="372.00" departLane="gneE0_0" departPos="0.00" departSpeed="0.00" departDelay="0.00" arrival="428.00" arrivalLane="gneE1_0" arrivalPos="282.05" arrivalSpeed="13.80" duration="56.00" routeLength="573.04" waitSteps="0" timeLoss="13.80" rerouteNo="0" devices="tripinfo_106" vType="passenger" speedFactor="1.00" vaporized=""/>
    <tripinfo id="107" depart="382.00" departLane="gneE0_0" departPos="0.00" departSpeed="0.00" departDelay="0.00" arrival="438.00" arrivalLane="gneE1_0" arrivalPos="282.05" arrivalSpeed="13.77" duration="56.00" routeLength="573.04" waitSteps="0" timeLoss="14.14" rerouteNo="0" devices="tripinfo_107" vType="passenger" speedFactor="1.00" vaporized=""/>
    <tripinfo id="109" depart="388.00" departLane="gneE2_0" departPos="0.00" departSpeed="0.00" departDelay="0.00" arrival="444.00" arrivalLane="gneE5_0" arrivalPos="282.05" arrivalSpeed="13.72" duration="56.00" routeLength="600.37" waitSteps="0" timeLoss="12.13" rerouteNo="0" devices="tripinfo_109" vType="passenger" speedFactor="1.00" vaporized=""/>
    <tripinfo id="110" depart="389.00" departLane="gneE6_0" departPos="0.00" departSpeed="0.00" departDelay="0.00" arrival="444.00" arrivalLane="gneE1_0" arrivalPos="282.05" arrivalSpeed="13.57" duration="55.00" routeLength="600.37" waitSteps="0" timeLoss="11.23" rerouteNo="0" devices="tripinfo_110" vType="passenger" speedFactor="1.00" vaporized=""/>
    <tripinfo id="111" depart="394.00" departLane="gneE6_0" departPos="0.00" departSpeed="0.00" departDelay="2.00" arrival="448.00" arrivalLane="gneE7_0" arrivalPos="282.05" arrivalSpeed="13.82" duration="54.00" routeLength="573.04" waitSteps="0" timeLoss="12.32" rerouteNo="0" devices="tripinfo_111" vType="passenger" speedFactor="1.00" vaporized=""/>
    <tripinfo id="112" depart="399.00" departLane="gneE6_0" departPos="0.00" departSpeed="0.00" departDelay="4.00" arrival="454.00" arrivalLane="gneE1_0" arrivalPos="282.05" arrivalSpeed="13.67" duration="55.00" routeLength="600.37" waitSteps="0" timeLoss="11.59" rerouteNo="0" devices="tripinfo_112" vType="passenger" speedFactor="1.00" vaporized=""/>
    <tripinfo id="118" depart="403.00" departLane="gneE2_0" departPos="0.00" departSpeed="0.00" departDelay="0.00" arrival="458.00" arrivalLane="gneE5_0" arrivalPos="282.05" arrivalSpeed="13.70" duration="55.00" routeLength="600.37" waitSteps="0" timeLoss="11.36" rerouteNo="0" devices="tripinfo_118" vType="passenger" speedFactor="1.00" vaporized=""/>
    <tripinfo id="119" depart="408.00" departLane="gneE6_0" departPos="0.00" departSpeed="0.00" departDelay="0.00" arrival="463.00" arrivalLane="gneE1_0" arrivalPos="282.05" arrivalSpeed="13.53" duration="55.00" routeLength="600.37" waitSteps="0" timeLoss="11.57" rerouteNo="0" devices="tripinfo_119" vType="passenger" speedFactor="1.00" vaporized=""/>
    <tripinfo id="121" depart="413.00" departLane="gneE6_0" departPos="0.00" departSpeed="0.00" departDelay="3.00" arrival="468.00" arrivalLane="gneE1_0" arrivalPos="282.05" arrivalSpeed="13.84" duration="55.00" routeLength="600.37" waitSteps="0" timeLoss="11.68" rerouteNo="0" devices="tripinfo_121" vType="passenger" speedFactor="1.00" vaporized=""/>
    <tripinfo id="122" depart="418.00" departLane="gneE6_0" departPos="0.00" departSpeed="0.00" departDelay="8.00" arrival="472.00" arrivalLane="gneE7_0" arrivalPos="282.05" arrivalSpeed="13.57" duration="54.00" routeLength="573.04" waitSteps="0" timeLoss="11.91" rerouteNo="0" devices="tripinfo_122" vType="passenger" speedFactor="1.00" vaporized=""/>
    <tripinfo id="123" depart="417.00" departLane="gneE0_0" departPos="0.00" departSpeed="0.00" departDelay="5.00" arrival="475.00" arrivalLane="gneE1_0" arrivalPos="282.05" arrivalSpeed="13.70" duration="58.00" routeLength="573.04" waitSteps="0" timeLoss="16.67" rerouteNo="0" devices="tripinfo_123" vType="passenger" speedFactor="1.00" vaporized=""/>
    <tripinfo id="126" depart="426.00" departLane="gneE6_0" departPos="0.00" departSpeed="0.00" departDelay="0.00" arrival="479.00" arrivalLane="gneE7_0" arrivalPos="282.05" arrivalSpeed="13.74" duration="53.00" routeLength="573.04" waitSteps="0" timeLoss="11.23" rerouteNo="0" devices="tripinfo_126" vType="passenger" speedFactor="1.00" vaporized=""/>
    <tripinfo id="127" depart="431.00" departLane="gneE6_0" departPos="0.00" departSpeed="0.00" departDelay="0.00" arrival="485.00" arrivalLane="gneE1_0" arrivalPos="282.05" arrivalSpeed="13.84" duration="54.00" routeLength="600.37" waitSteps="0" timeLoss="10.71" rerouteNo="0" devices="tripinfo_127" vType="passenger" speedFactor="1.00" vaporized=""/>
    <tripinfo id="128" depart="436.00" departLane="gneE6_0" departPos="0.00" departSpeed="0.00" departDelay="2.00" arrival="491.00" arrivalLane="gneE1_0" arrivalPos="282.05" arrivalSpeed="13.51" duration="55.00" routeLength="600.37" waitSteps="0" timeLoss="11.53" rerouteNo="0" devices="tripinfo_128" vType="passenger" speedFactor="1.00" vaporized=""/>
    <tripinfo id="130" depart="444.00" departLane="gneE2_0" departPos="0.00" departSpeed="0.00" departDelay="0.00" arrival="497.00" arrivalLane="gneE3_0" arrivalPos="282.05" arrivalSpeed="13.74" duration="53.00" routeLength="573.04" waitSteps="0" timeLoss="11.75" rerouteNo="0" devices="tripinfo_130" vType="passenger" speedFactor="1.00" vaporized=""/>
    <tripinfo id="131" depart="450.00" departLane="gneE6_0" departPos="0.00" departSpeed="0.00" departDelay="0.00" arrival="506.00" arrivalLane="gneE1_0" arrivalPos="282.05" arrivalSpeed="13.87" duration="56.00" routeLength="600.37" waitSteps="0" timeLoss="12.02" rerouteNo="0" devices="tripinfo_131" vType="passenger" speedFactor="1.00" vaporized=""/>