<?xml version="1.0" encoding="UTF-8"?>

<!-- generated on Mon 10 Dec 2018 06:18:52 PM CST by SUMO gui Version 0.32.0
<?xml version="1.0" encoding="UTF-8"?>

<configuration xmlns:xsi="http://www.w3.org/2001/XMLSchema-instance" xsi:noNamespaceSchemaLocation="http://sumo.dlr.de/xsd/sumoConfiguration.xsd">

    <input>
        <net-file value="Data/State_Street_4500_South.net.xml"/>
        <route-files value="Data/State_Street_4500_South.rou.xml"/>
        <additional-files value="Data/State_Street_4500_South.det.xml"/>
    </input>

    <output>
        <tripinfo-output value="tripinfo.xml"/>
    </output>

    <time>
        <begin value="0"/>
    </time>

    <processing>
        <time-to-teleport value="-1"/>
    </processing>

    <report>
        <verbose value="true"/>
        <no-step-log value="true"/>
    </report>

    <traci_server>
        <remote-port value="51073"/>
    </traci_server>

    <gui_only>
        <gui-settings-file value="Data/State_Street_4500_South.settings.xml"/>
    </gui_only>

</configuration>
-->

<tripinfos xmlns:xsi="http://www.w3.org/2001/XMLSchema-instance" xsi:noNamespaceSchemaLocation="http://sumo.dlr.de/xsd/tripinfo_file.xsd">
    <tripinfo id="4" depart="23.00" departLane="gneE6_0" departPos="0.00" departSpeed="0.00" departDelay="0.00" arrival="79.00" arrivalLane="gneE1_0" arrivalPos="282.05" arrivalSpeed="13.73" duration="56.00" routeLength="600.37" waitSteps="0" timeLoss="12.04" rerouteNo="0" devices="tripinfo_4" vType="passenger" speedFactor="1.00" vaporized=""/>
    <tripinfo id="5" depart="26.00" departLane="gneE2_0" departPos="0.00" departSpeed="0.00" departDelay="0.00" arrival="81.00" arrivalLane="gneE5_0" arrivalPos="282.05" arrivalSpeed="13.85" duration="55.00" routeLength="600.37" waitSteps="0" timeLoss="11.56" rerouteNo="0" devices="tripinfo_5" vType="passenger" speedFactor="1.00" vaporized=""/>
    <tripinfo id="7" depart="30.00" departLane="gneE6_0" departPos="0.00" departSpeed="0.00" departDelay="0.00" arrival="84.00" arrivalLane="gneE7_0" arrivalPos="282.05" arrivalSpeed="13.72" duration="54.00" routeLength="573.04" waitSteps="0" timeLoss="11.94" rerouteNo="0" devices="tripinfo_7" vType="passenger" speedFactor="1.00" vaporized=""/>
    <tripinfo id="6" depart="31.00" departLane="gneE2_0" departPos="0.00" departSpeed="0.00" departDelay="1.00" arrival="86.00" arrivalLane="gneE5_0" arrivalPos="282.05" arrivalSpeed="13.84" duration="55.00" routeLength="600.37" waitSteps="0" timeLoss="11.24" rerouteNo="0" devices="tripinfo_6" vType="passenger" speedFactor="1.00" vaporized=""/>
    <tripinfo id="8" depart="35.00" departLane="gneE6_0" departPos="0.00" departSpeed="0.00" departDelay="1.00" arrival="91.00" arrivalLane="gneE1_0" arrivalPos="282.05" arrivalSpeed="13.65" duration="56.00" routeLength="600.37" waitSteps="0" timeLoss="11.83" rerouteNo="0" devices="tripinfo_8" vType="passenger" speedFactor="1.00" vaporized=""/>
    <tripinfo id="12" depart="46.00" departLane="gneE6_0" departPos="0.00" departSpeed="0.00" departDelay="0.00" arrival="99.00" arrivalLane="gneE7_0" arrivalPos="282.05" arrivalSpeed="13.52" duration="53.00" routeLength="573.04" waitSteps="0" timeLoss="11.09" rerouteNo="0" devices="tripinfo_12" vType="passenger" speedFactor="1.00" vaporized=""/>
    <tripinfo id="11" depart="46.00" departLane="gneE2_0" departPos="0.00" departSpeed="0.00" departDelay="0.00" arrival="101.00" arrivalLane="gneE5_0" arrivalPos="282.05" arrivalSpeed="13.52" duration="55.00" routeLength="600.37" waitSteps="0" timeLoss="11.41" rerouteNo="0" devices="tripinfo_11" vType="passenger" speedFactor="1.00" vaporized=""/>
    <tripinfo id="15" depart="59.00" departLane="gneE6_0" departPos="0.00" departSpeed="0.00" departDelay="0.00" arrival="113.00" arrivalLane="gneE7_0" arrivalPos="282.05" arrivalSpeed="13.49" duration="54.00" routeLength="573.04" waitSteps="0" timeLoss="12.54" rerouteNo="0" devices="tripinfo_15" vType="passenger" speedFactor="1.00" vaporized=""/>
    <tripinfo id="20" depart="84.00" departLane="gneE2_0" departPos="0.00" departSpeed="0.00" departDelay="0.00" arrival="139.00" arrivalLane="gneE5_0" arrivalPos="282.05" arrivalSpeed="13.52" duration="55.00" routeLength="600.37" waitSteps="0" timeLoss="11.65" rerouteNo="0" devices="tripinfo_20" vType="passenger" speedFactor="1.00" vaporized=""/>
    <tripinfo id="21" depart="89.00" departLane="gneE6_0" departPos="0.00" departSpeed="0.00" departDelay="5.00" arrival="144.00" arrivalLane="gneE1_0" arrivalPos="282.05" arrivalSpeed="13.78" duration="55.00" routeLength="600.37" waitSteps="0" timeLoss="11.55" rerouteNo="0" devices="tripinfo_21" vType="passenger" speedFactor="1.00" vaporized=""/>
    <tripinfo id="24" depart="94.00" departLane="gneE6_0" departPos="0.00" departSpeed="0.00" departDelay="8.00" arrival="150.00" arrivalLane="gneE1_0" arrivalPos="282.05" arrivalSpeed="13.55" duration="56.00" routeLength="600.37" waitSteps="0" timeLoss="12.17" rerouteNo="0" devices="tripinfo_24" vType="passenger" speedFactor="1.00" vaporized=""/>
    <tripinfo id="26" depart="96.00" departLane="gneE2_0" departPos="0.00" departSpeed="0.00" departDelay="0.00" arrival="151.00" arrivalLane="gneE5_0" arrivalPos="282.05" arrivalSpeed="13.83" duration="55.00" routeLength="600.37" waitSteps="0" timeLoss="11.35" rerouteNo="0" devices="tripinfo_26" vType="passenger" speedFactor="1.00" vaporized=""/>
    <tripinfo id="27" depart="102.00" departLane="gneE2_0" departPos="0.00" departSpeed="0.00" departDelay="0.00" arrival="157.00" arrivalLane="gneE5_0" arrivalPos="282.05" arrivalSpeed="13.75" duration="55.00" routeLength="600.37" waitSteps="0" timeLoss="11.07" rerouteNo="0" devices="tripinfo_27" vType="passenger" speedFactor="1.00" vaporized=""/>
    <tripinfo id="25" depart="95.00" departLane="gneE0_0" departPos="0.00" departSpeed="0.00" departDelay="0.00" arrival="162.00" arrivalLane="gneE1_0" arrivalPos="282.05" arrivalSpeed="13.51" duration="67.00" routeLength="573.04" waitSteps="1" timeLoss="25.23" rerouteNo="0" devices="tripinfo_25" vType="passenger" speedFactor="1.00" vaporized=""/>
    <tripinfo id="28" depart="110.00" departLane="gneE6_0" departPos="0.00" departSpeed="0.00" departDelay="0.00" arrival="163.00" arrivalLane="gneE7_0" arrivalPos="282.05" arrivalSpeed="13.86" duration="53.00" routeLength="573.04" waitSteps="0" timeLoss="11.46" rerouteNo="0" devices="tripinfo_28" vType="passenger" speedFactor="1.00" vaporized=""/>
    <tripinfo id="30" depart="113.00" departLane="gneE2_0" departPos="0.00" departSpeed="0.00" departDelay="0.00" arrival="167.00" arrivalLane="gneE5_0" arrivalPos="282.05" arrivalSpeed="13.54" duration="54.00" routeLength="600.37" waitSteps="0" timeLoss="10.42" rerouteNo="0" devices="tripinfo_30" vType="passenger" speedFactor="1.00" vaporized=""/>
    <tripinfo id="29" depart="115.00" departLane="gneE6_0" departPos="0.00" departSpeed="0.00" departDelay="3.00" arrival="170.00" arrivalLane="gneE1_0" arrivalPos="282.05" arrivalSpeed="13.69" duration="55.00" routeLength="600.37" waitSteps="0" timeLoss="11.16" rerouteNo="0" devices="tripinfo_29" vType="passenger" speedFactor="1.00" vaporized=""/>
    <tripinfo id="32" depart="120.00" departLane="gneE6_0" departPos="0.00" departSpeed="0.00" departDelay="5.00" arrival="176.00" arrivalLane="gneE1_0" arrivalPos="282.05" arrivalSpeed="13.52" duration="56.00" routeLength="600.37" waitSteps="0" timeLoss="12.41" rerouteNo="0" devices="tripinfo_32" vType="passenger" speedFactor="1.00" vaporized=""/>
    <tripinfo id="34" depart="126.00" departLane="gneE6_0" departPos="0.00" departSpeed="0.00" departDelay="4.00" arrival="182.00" arrivalLane="gneE1_0" arrivalPos="282.05" arrivalSpeed="13.56" duration="56.00" routeLength="600.37" waitSteps="0" timeLoss="11.96" rerouteNo="0" devices="tripinfo_34" vType="passenger" speedFactor="1.00" vaporized=""/>
    <tripinfo id="38" depart="136.00" departLane="gneE6_0" departPos="0.00" departSpeed="0.00" departDelay="6.00" arrival="193.00" arrivalLane="gneE1_1" arrivalPos="282.05" arrivalSpeed="13.53" duration="57.00" routeLength="600.37" waitSteps="0" timeLoss="13.08" rerouteNo="0" devices="tripinfo_38" vType="passenger" speedFactor="1.00" vaporized=""/>
    <tripinfo id="36" depart="127.00" departLane="gneE0_0" departPos="0.00" departSpeed="0.00" departDelay="0.00" arrival="194.00" arrivalLane="gneE1_0" arrivalPos="282.05" arrivalSpeed="13.79" duration="67.00" routeLength="573.04" waitSteps="1" timeLoss="25.14" rerouteNo="0" devices="tripinfo_36" vType="passenger" speedFactor="1.00" vaporized=""/>
    <tripinfo id="41" depart="142.00" departLane="gneE6_0" departPos="0.00" departSpeed="0.00" departDelay="1.00" arrival="196.00" arrivalLane="gneE1_0" arrivalPos="282.05" arrivalSpeed="13.53" duration="54.00" routeLength="600.37" waitSteps="0" timeLoss="10.73" rerouteNo="0" devices="tripinfo_41" vType="passenger" speedFactor="1.00" vaporized=""/>
    <tripinfo id="42" depart="143.00" departLane="gneE2_0" departPos="0.00" departSpeed="0.00" departDelay="0.00" arrival="198.00" arrivalLane="gneE5_0" arrivalPos="282.05" arrivalSpeed="13.50" duration="55.00" routeLength="600.37" waitSteps="0" timeLoss="11.41" rerouteNo="0" devices="tripinfo_42" vType="passenger" speedFactor="1.00" vaporized=""/>
    <tripinfo id="46" depart="163.00" departLane="gneE6_0" departPos="0.00" departSpeed="0.00" departDelay="0.00" arrival="219.00" arrivalLane="gneE1_0" arrivalPos="282.05" arrivalSpeed="13.54" duration="56.00" routeLength="600.37" waitSteps="0" timeLoss="12.29" rerouteNo="0" devices="tripinfo_46" vType="passenger" speedFactor="1.00" vaporized=""/>
    <tripinfo id="47" depart="169.00" departLane="gneE6_0" departPos="0.00" departSpeed="0.00" departDelay="3.00" arrival="223.00" arrivalLane="gneE1_0" arrivalPos="282.05" arrivalSpeed="13.68" duration="54.00" routeLength="600.37" waitSteps="0" timeLoss="10.78" rerouteNo="0" devices="tripinfo_47" vType="passenger" speedFactor="1.00" vaporized=""/>
    <tripinfo id="48" depart="174.00" departLane="gneE6_0" departPos="0.00" departSpeed="0.00" departDelay="5.00" arrival="229.00" arrivalLane="gneE1_0" arrivalPos="282.05" arrivalSpeed="13.77" duration="55.00" routeLength="600.37" waitSteps="0" timeLoss="10.95" rerouteNo="0" devices="tripinfo_48" vType="passenger" speedFactor="1.00" vaporized=""/>
    <tripinfo id="49" depart="179.00" departLane="gneE0_0" departPos="0.00" departSpeed="0.00" departDelay="0.00" arrival="234.00" arrivalLane="gneE1_0" arrivalPos="282.05" arrivalSpeed="13.79" duration="55.00" routeLength="573.04" waitSteps="0" timeLoss="12.98" rerouteNo="0" devices="tripinfo_49" vType="passenger" speedFactor="1.00" vaporized=""/>
    <tripinfo id="50" depart="185.00" departLane="gneE2_0" departPos="0.00" departSpeed="0.00" departDelay="0.00" arrival="241.00" arrivalLane="gneE5_0" arrivalPos="282.05" arrivalSpeed="13.54" duration="56.00" routeLength="600.37" waitSteps="0" timeLoss="12.33" rerouteNo="0" devices="tripinfo_50" vType="passenger" speedFactor="1.00" vaporized=""/>
    <tripinfo id="51" depart="186.00" departLane="gneE6_0" departPos="0.00" departSpeed="0.00" departDelay="0.00" arrival="241.00" arrivalLane="gneE1_0" arrivalPos="282.05" arrivalSpeed="13.67" duration="55.00" routeLength="600.37" waitSteps="0" timeLoss="11.61" rerouteNo="0" devices="tripinfo_51" vType="passenger" speedFactor="1.00" vaporized=""/>
    <tripinfo id="54" depart="191.00" departLane="gneE6_0" departPos="0.00" departSpeed="0.00" departDelay="1.00" arrival="246.00" arrivalLane="gneE1_0" arrivalPos="282.05" arrivalSpeed="13.82" duration="55.00" routeLength="600.37" waitSteps="0" timeLoss="11.12" rerouteNo="0" devices="tripinfo_54" vType="passenger" speedFactor="1.00" vaporized=""/>
    <tripinfo id="52" depart="191.00" departLane="gneE2_0" departPos="0.00" departSpeed="0.00" departDelay="3.00" arrival="247.00" arrivalLane="gneE5_0" arrivalPos="282.05" arrivalSpeed="13.88" duration="56.00" routeLength="600.37" waitSteps="0" timeLoss="12.16" rerouteNo="0" devices="tripinfo_52" vType="passenger" speedFactor="1.00" vaporized=""/>
    <tripinfo id="57" depart="196.00" departLane="gneE6_0" departPos="0.00" departSpeed="0.00" departDelay="4.00" arrival="251.00" arrivalLane="gneE1_0" arrivalPos="282.05" arrivalSpeed="13.80" duration="55.00" routeLength="600.37" waitSteps="0" timeLoss="11.44" rerouteNo="0" devices="tripinfo_57" vType="passenger" speedFactor="1.00" vaporized=""/>
    <tripinfo id="56" depart="196.00" departLane="gneE2_0" departPos="0.00" departSpeed="0.00" departDelay="4.00" arrival="252.00" arrivalLane="gneE5_0" arrivalPos="282.05" arrivalSpeed="13.65" duration="56.00" routeLength="600.37" waitSteps="0" timeLoss="11.84" rerouteNo="0" devices="tripinfo_56" vType="passenger" speedFactor="1.00" vaporized=""/>
    <tripinfo id="59" depart="203.00" departLane="gneE6_0" departPos="0.00" departSpeed="0.00" departDelay="0.00" arrival="257.00" arrivalLane="gneE1_0" arrivalPos="282.05" arrivalSpeed="13.62" duration="54.00" routeLength="600.37" waitSteps="0" timeLoss="10.41" rerouteNo="0" devices="tripinfo_59" vType="passenger" speedFactor="1.00" vaporized=""/>
    <tripinfo id="60" depart="208.00" departLane="gneE6_0" departPos="0.00" departSpeed="0.00" departDelay="1.00" arrival="263.00" arrivalLane="gneE1_0" arrivalPos="282.05" arrivalSpeed="13.52" duration="55.00" routeLength="600.37" waitSteps="0" timeLoss="11.69" rerouteNo="0" devices="tripinfo_60" vType="passenger" speedFactor="1.00" vaporized=""/>
    <tripinfo id="61" depart="211.00" departLane="gneE2_0" departPos="0.00" departSpeed="0.00" departDelay="0.00" arrival="267.00" arrivalLane="gneE5_0" arrivalPos="282.05" arrivalSpeed="13.59" duration="56.00" routeLength="600.37" waitSteps="0" timeLoss="12.16" rerouteNo="0" devices="tripinfo_61" vType="passenger" speedFactor="1.00" vaporized=""/>
    <tripinfo id="62" depart="213.00" departLane="gneE6_0" departPos="0.00" departSpeed="0.00" departDelay="0.00" arrival="267.00" arrivalLane="gneE1_0" arrivalPos="282.05" arrivalSpeed="13.53" duration="54.00" routeLength="600.37" waitSteps="0" timeLoss="10.76" rerouteNo="0" devices="tripinfo_62" vType="passenger" speedFactor="1.00" vaporized=""/>
    <tripinfo id="63" depart="218.00" departLane="gneE6_0" departPos="0.00" departSpeed="0.00" departDelay="1.00" arrival="273.00" arrivalLane="gneE1_0" arrivalPos="282.05" arrivalSpeed="13.64" duration="55.00" routeLength="600.37" waitSteps="0" timeLoss="11.04" rerouteNo="0" devices="tripinfo_63" vType="passenger" speedFactor="1.00" vaporized=""/>
    <tripinfo id="64" depart="224.00" departLane="gneE6_0" departPos="0.00" departSpeed="0.00" departDelay="0.00" arrival="279.00" arrivalLane="gneE1_0" arrivalPos="282.05" arrivalSpeed="13.58" duration="55.00" routeLength="600.37" waitSteps="0" timeLoss="11.31" rerouteNo="0" devices="tripinfo_64" vType="passenger" speedFactor="1.00" vaporized=""/>
    <tripinfo id="66" depart="234.00" departLane="gneE2_0" departPos="0.00" departSpeed="0.00" departDelay="1.00" arrival="288.00" arrivalLane="gneE5_0" arrivalPos="282.05" arrivalSpeed="13.67" duration="54.00" routeLength="600.37" waitSteps="0" timeLoss="10.67" rerouteNo="0" devices="tripinfo_66" vType="passenger" speedFactor="1.00" vaporized=""/>
    <tripinfo id="69" depart="242.00" departLane="gneE0_0" departPos="0.00" departSpeed="0.00" departDelay="0.00" arrival="298.00" arrivalLane="gneE1_0" arrivalPos="282.05" arrivalSpeed="13.78" duration="56.00" routeLength="573.04" waitSteps="0" timeLoss="13.90" rerouteNo="0" devices="tripinfo_69" vType="passenger" speedFactor="1.00" vaporized=""/>
    <tripinfo id="68" depart="244.00" departLane="gneE2_0" departPos="0.00" departSpeed="0.00" departDelay="4.00" arrival="299.00" arrivalLane="gneE5_0" arrivalPos="282.05" arrivalSpeed="13.65" duration="55.00" routeLength="600.37" waitSteps="0" timeLoss="11.25" rerouteNo="0" devices="tripinfo_68" vType="passenger" speedFactor="1.00" vaporized=""/>
    <tripinfo id="70" depart="243.00" departLane="gneE6_0" departPos="0.00" departSpeed="0.00" departDelay="0.00" arrival="300.00" arrivalLane="gneE1_0" arrivalPos="282.05" arrivalSpeed="13.82" duration="57.00" routeLength="600.37" waitSteps="0" timeLoss="13.19" rerouteNo="0" devices="tripinfo_70" vType="passenger" speedFactor="1.00" vaporized=""/>
    <tripinfo id="71" depart="248.00" departLane="gneE6_0" departPos="0.00" departSpeed="0.00" departDelay="2.00" arrival="304.00" arrivalLane="gneE1_0" arrivalPos="282.05" arrivalSpeed="13.66" duration="56.00" routeLength="600.37" waitSteps="0" timeLoss="12.37" rerouteNo="0" devices="tripinfo_71" vType="passenger" speedFactor="1.00" vaporized=""/>
    <tripinfo id="72" depart="249.00" departLane="gneE2_0" departPos="0.00" departSpeed="0.00" departDelay="2.00" arrival="305.00" arrivalLane="gneE5_0" arrivalPos="282.05" arrivalSpeed="13.68" duration="56.00" routeLength="600.37" waitSteps="0" timeLoss="12.39" rerouteNo="0" devices="tripinfo_72" vType="passenger" speedFactor="1.00" vaporized=""/>
    <tripinfo id="73" depart="248.00" departLane="gneE0_0" departPos="0.00" departSpeed="0.00" departDelay="0.00" arrival="316.00" arrivalLane="gneE1_0" arrivalPos="282.05" arrivalSpeed="13.60" duration="68.00" routeLength="573.04" waitSteps="1" timeLoss="26.09" rerouteNo="0" devices="tripinfo_73" vType="passenger" speedFactor="1.00" vaporized=""/>
    <tripinfo id="76" depart="260.00" departLane="gneE2_0" departPos="0.00" departSpeed="0.00" departDelay="0.00" arrival="317.00" arrivalLane="gneE5_0" arrivalPos="282.05" arrivalSpeed="13.77" duration="57.00" routeLength="600.37" waitSteps="0" timeLoss="12.94" rerouteNo="0" devices="tripinfo_76" vType="passenger" speedFactor="1.00" vaporized=""/>
    <tripinfo id="74" depart="254.00" departLane="gneE6_0" departPos="0.00" departSpeed="0.00" departDelay="3.00" arrival="317.00" arrivalLane="gneE1_0" arrivalPos="282.05" arrivalSpeed="13.65" duration="63.00" routeLength="600.37" waitSteps="0" timeLoss="19.73" rerouteNo="0" devices="tripinfo_74" vType="passenger" speedFactor="1.00" vaporized=""/>
    <tripinfo id="79" depart="271.00" departLane="gneE2_0" departPos="0.00" departSpeed="0.00" departDelay="0.00" arrival="327.00" arrivalLane="gneE5_0" arrivalPos="282.05" arrivalSpeed="13.82" duration="56.00" routeLength="600.37" waitSteps="0" timeLoss="12.77" rerouteNo="0" devices="tripinfo_79" vType="passenger" speedFactor="1.00" vaporized=""/>
    <tripinfo id="82" depart="276.00" departLane="gneE6_0" departPos="0.00" departSpeed="0.00" departDelay="0.00" arrival="331.00" arrivalLane="gneE1_0" arrivalPos="282.05" arrivalSpeed="13.69" duration="55.00" routeLength="600.37" waitSteps="0" timeLoss="11.48" rerouteNo="0" devices="tripinfo_82" vType="passenger" speedFactor="1.00" vaporized=""/>
    <tripinfo id="83" depart="281.00" departLane="gneE6_0" departPos="0.00" departSpeed="0.00" departDelay="3.00" arrival="334.00" arrivalLane="gneE7_0" arrivalPos="282.05" arrivalSpeed="13.61" duration="53.00" routeLength="573.04" waitSteps="0" timeLoss="11.44" rerouteNo="0" devices="tripinfo_83" vType="passenger" speedFactor="1.00" vaporized=""/>
    <tripinfo id="81" depart="282.00" departLane="gneE2_0" departPos="0.00" departSpeed="0.00" departDelay="6.00" arrival="338.00" arrivalLane="gneE5_0" arrivalPos="282.05" arrivalSpeed="13.86" duration="56.00" routeLength="600.37" waitSteps="0" timeLoss="11.85" rerouteNo="0" devices="tripinfo_81" vType="passenger" speedFactor="1.00" vaporized=""/>
    <tripinfo id="84" depart="286.00" departLane="gneE6_0" departPos="0.00" departSpeed="0.00" departDelay="7.00" arrival="340.00" arrivalLane="gneE7_0" arrivalPos="282.05" arrivalSpeed="13.70" duration="54.00" routeLength="573.04" waitSteps="0" timeLoss="11.89" rerouteNo="0" devices="tripinfo_84" vType="passenger" speedFactor="1.00" vaporized=""/>
    <tripinfo id="85" depart="291.00" departLane="gneE6_0" departPos="0.00" departSpeed="0.00" departDelay="7.00" arrival="344.00" arrivalLane="gneE7_0" arrivalPos="282.05" arrivalSpeed="13.75" duration="53.00" routeLength="573.04" waitSteps="0" timeLoss="11.36" rerouteNo="0" devices="tripinfo_85" vType="passenger" speedFactor="1.00" vaporized=""/>
    <tripinfo id="86" depart="296.00" departLane="gneE6_0" departPos="0.00" departSpeed="0.00" departDelay="2.00" arrival="350.00" arrivalLane="gneE7_0" arrivalPos="282.05" arrivalSpeed="13.59" duration="54.00" routeLength="573.04" waitSteps="0" timeLoss="12.32" rerouteNo="0" devices="tripinfo_86" vType="passenger" speedFactor="1.00" vaporized=""/>
    <tripinfo id="87" depart="295.00" departLane="gneE2_0" departPos="0.00" departSpeed="0.00" departDelay="0.00" arrival="351.00" arrivalLane="gneE5_0" arrivalPos="282.05" arrivalSpeed="13.73" duration="56.00" routeLength="600.37" waitSteps="0" timeLoss="12.61" rerouteNo="0" devices="tripinfo_87" vType="passenger" speedFactor="1.00" vaporized=""/>
    <tripinfo id="88" depart="306.00" departLane="gneE2_0" departPos="0.00" departSpeed="0.00" departDelay="0.00" arrival="361.00" arrivalLane="gneE5_0" arrivalPos="282.05" arrivalSpeed="13.67" duration="55.00" routeLength="600.37" waitSteps="0" timeLoss="11.68" rerouteNo="0" devices="tripinfo_88" vType="passenger" speedFactor="1.00" vaporized=""/>
    <tripinfo id="89" depart="312.00" departLane="gneE6_0" departPos="0.00" departSpeed="0.00" departDelay="0.00" arrival="367.00" arrivalLane="gneE1_0" arrivalPos="282.05" arrivalSpeed="13.78" duration="55.00" routeLength="600.37" waitSteps="0" timeLoss="11.62" rerouteNo="0" devices="tripinfo_89" vType="passenger" speedFactor="1.00" vaporized=""/>
    <tripinfo id="91" depart="317.00" departLane="gneE6_0" departPos="0.00" departSpeed="0.00" departDelay="1.00" arrival="371.00" arrivalLane="gneE7_0" arrivalPos="282.05" arrivalSpeed="13.58" duration="54.00" routeLength="573.04" waitSteps="0" timeLoss="12.09" rerouteNo="0" devices="tripinfo_91" vType="passenger" speedFactor="1.00" vaporized=""/>
    <tripinfo id="92" depart="318.00" departLane="gneE2_0" departPos="0.00" departSpeed="0.00" departDelay="0.00" arrival="373.00" arrivalLane="gneE5_0" arrivalPos="282.05" arrivalSpeed="13.54" duration="55.00" routeLength="600.37" waitSteps="0" timeLoss="11.78" rerouteNo="0" devices="tripinfo_92" vType="passenger" speedFactor="1.00" vaporized=""/>
    <tripinfo id="93" depart="322.00" departLane="gneE6_0" departPos="0.00" departSpeed="0.00" departDelay="2.00" arrival="376.00" arrivalLane="gneE7_0" arrivalPos="282.05" arrivalSpeed="13.57" duration="54.00" routeLength="573.04" waitSteps="0" timeLoss="12.15" rerouteNo="0" devices="tripinfo_93" vType="passenger" speedFactor="1.00" vaporized=""/>
    <tripinfo id="95" depart="327.00" departLane="gneE6_0" departPos="0.00" departSpeed="0.00" departDelay="6.00" arrival="382.00" arrivalLane="gneE1_0" arrivalPos="282.05" arrivalSpeed="13.56" duration="55.00" routeLength="600.37" waitSteps="0" timeLoss="11.62" rerouteNo="0" devices="tripinfo_95" vType="passenger" speedFactor="1.00" vaporized=""/>
    <tripinfo id="97" depart="332.00" departLane="gneE6_0" departPos="0.00" departSpeed="0.00" departDelay="8.00" arrival="387.00" arrivalLane="gneE1_0" arrivalPos="282.05" arrivalSpeed="13.74" duration="55.00" routeLength="600.37" waitSteps="0" timeLoss="11.11" rerouteNo="0" devices="tripinfo_97" vType="passenger" speedFactor="1.00" vaporized=""/>
    <tripinfo id="99" depart="337.00" departLane="gneE6_0" departPos="0.00" departSpeed="0.00" departDelay="10.00" arrival="390.00" arrivalLane="gneE7_0" arrivalPos="282.05" arrivalSpeed="13.52" duration="53.00" routeLength="573.04" waitSteps="0" timeLoss="10.85" rerouteNo="0" devices="tripinfo_99" vType="passenger" speedFactor="1.00" vaporized=""/>
    <tripinfo id="100" depart="342.00" departLane="gneE6_0" departPos="0.00" departSpeed="0.00" departDelay="10.00" arrival="397.00" arrivalLane="gneE1_0" arrivalPos="282.05" arrivalSpeed="13.71" duration="55.00" routeLength="600.37" waitSteps="0" timeLoss="11.13" rerouteNo="0" devices="tripinfo_100" vType="passenger" speedFactor="1.00" vaporized=""/>
    <tripinfo id="101" depart="347.00" departLane="gneE6_0" departPos="0.00" departSpeed="0.00" departDelay="14.00" arrival="400.00" arrivalLane="gneE7_0" arrivalPos="282.05" arrivalSpeed="13.53" duration="53.00" routeLength="573.04" waitSteps="0" timeLoss="11.49" rerouteNo="0" devices="tripinfo_101" vType="passenger" speedFactor="1.00" vaporized=""/>
    <tripinfo id="106" depart="348.00" departLane="gneE2_0" departPos="0.00" departSpeed="0.00" departDelay="0.00" arrival="404.00" arrivalLane="gneE5_0" arrivalPos="282.05" arrivalSpeed="13.89" duration="56.00" routeLength="600.37" waitSteps="0" timeLoss="11.95" rerouteNo="0" devices="tripinfo_106" vType="passenger" speedFactor="1.00" vaporized=""/>
    <tripinfo id="109" depart="354.00" departLane="gneE2_0" departPos="0.00" departSpeed="0.00" departDelay="0.00" arrival="407.00" arrivalLane="gneE3_0" arrivalPos="282.05" arrivalSpeed="13.58" duration="53.00" routeLength="573.04" waitSteps="0" timeLoss="11.44" rerouteNo="0" devices="tripinfo_109" vType="passenger" speedFactor="1.00" vaporized=""/>
    <tripinfo id="103" depart="357.00" departLane="gneE6_0" departPos="0.00" departSpeed="0.00" departDelay="16.00" arrival="412.00" arrivalLane="gneE1_0" arrivalPos="282.05" arrivalSpeed="13.79" duration="55.00" routeLength="600.37" waitSteps="0" timeLoss="11.08" rerouteNo="0" devices="tripinfo_103" vType="passenger" speedFactor="1.00" vaporized=""/>
    <tripinfo id="104" depart="362.00" departLane="gneE6_0" departPos="0.00" departSpeed="0.00" departDelay="20.00" arrival="417.00" arrivalLane="gneE1_0" arrivalPos="282.05" arrivalSpeed="13.63" duration="55.00" routeLength="600.37" waitSteps="0" timeLoss="11.30" rerouteNo="0" devices="tripinfo_104" vType="passenger" speedFactor="1.00" vaporized=""/>
    <tripinfo id="114" depart="364.00" departLane="gneE2_0" departPos="0.00" departSpeed="0.00" departDelay="5.00" arrival="420.00" arrivalLane="gneE5_0" arrivalPos="282.05" arrivalSpeed="13.64" duration="56.00" routeLength="600.37" waitSteps="0" timeLoss="12.76" rerouteNo="0" devices="tripinfo_114" vType="passenger" speedFactor="1.00" vaporized=""/>
    <tripinfo id="117" depart="370.00" departLane="gneE2_0" departPos="0.00" departSpeed="0.00" departDelay="0.00" arrival="426.00" arrivalLane="gneE5_0" arrivalPos="282.05" arrivalSpeed="13.83" duration="56.00" routeLength="600.37" waitSteps="0" timeLoss="12.16" rerouteNo="0" devices="tripinfo_117" vType="passenger" speedFactor="1.00" vaporized=""/>
    <tripinfo id="108" depart="372.00" departLane="gneE6_0" departPos="0.00" departSpeed="0.00" departDelay="20.00" arrival="427.00" arrivalLane="gneE1_0" arrivalPos="282.05" arrivalSpeed="13.50" duration="55.00" routeLength="600.37" waitSteps="0" timeLoss="11.53" rerouteNo="0" devices="tripinfo_108" vType="passenger" speedFactor="1.00" vaporized=""/>
    <tripinfo id="110" depart="377.00" departLane="gneE6_0" departPos="0.00" departSpeed="0.00" departDelay="22.00" arrival="431.00" arrivalLane="gneE7_0" arrivalPos="282.05" arrivalSpeed="13.68" duration="54.00" routeLength="573.04" waitSteps="0" timeLoss="11.85" rerouteNo="0" devices="tripinfo_110" vType="passenger" speedFactor="1.00" vaporized=""/>
    <tripinfo id="118" depart="382.00" departLane="gneE6_0" departPos="0.00" departSpeed="0.00" departDelay="5.00" arrival="437.00" arrivalLane="gneE1_0" arrivalPos="282.05" arrivalSpeed="13.81" duration="55.00" routeLength="600.37" waitSteps="0" timeLoss="11.10" rerouteNo="0" devices="tripinfo_118" vType="passenger" speedFactor="1.00" vaporized=""/>
    <tripinfo id="119" depart="388.00" departLane="gneE2_0" departPos="0.00" departSpeed="0.00" departDelay="0.00" arrival="442.00" arrivalLane="gneE5_0" arrivalPos="282.05" arrivalSpeed="13.66" duration="54.00" routeLength="600.37" waitSteps="0" timeLoss="10.46" rerouteNo="0" devices="tripinfo_119" vType="passenger" speedFactor="1.00" vaporized=""/>
    <tripinfo id="121" depart="396.00" departLane="gneE2_0" departPos="0.00" departSpeed="0.00" departDelay="0.00" arrival="449.00" arrivalLane="gneE3_0" arrivalPos="282.05" arrivalSpeed="13.64" duration="53.00" routeLength="573.04" waitSteps="0" timeLoss="11.56" rerouteNo="0" devices="tripinfo_121" vType="passenger" speedFactor="1.00" vaporized=""/>
</tripinfos>
