<?xml version="1.0" encoding="UTF-8"?>

<!-- generated on Fri 19 Oct 2018 02:44:11 PM CDT by SUMO gui Version 0.32.0
<?xml version="1.0" encoding="UTF-8"?>

<configuration xmlns:xsi="http://www.w3.org/2001/XMLSchema-instance" xsi:noNamespaceSchemaLocation="http://sumo.dlr.de/xsd/sumoConfiguration.xsd">

    <input>
        <net-file value="Data/State_Street_4500_South.net.xml"/>
        <route-files value="Data/State_Street_4500_South.rou.xml"/>
        <additional-files value="Data/State_Street_4500_South.det.xml"/>
    </input>

    <output>
        <tripinfo-output value="tripinfo.xml"/>
    </output>

    <time>
        <begin value="0"/>
    </time>

    <processing>
        <time-to-teleport value="-1"/>
    </processing>

    <report>
        <verbose value="true"/>
        <no-step-log value="true"/>
    </report>

    <traci_server>
        <remote-port value="33479"/>
    </traci_server>

    <gui_only>
        <gui-settings-file value="Data/State_Street_4500_South.settings.xml"/>
    </gui_only>

</configuration>
-->

<tripinfos xmlns:xsi="http://www.w3.org/2001/XMLSchema-instance" xsi:noNamespaceSchemaLocation="http://sumo.dlr.de/xsd/tripinfo_file.xsd">
    <tripinfo id="0" depart="2.00" departLane="gneE6_0" departPos="0.00" departSpeed="0.00" departDelay="0.00" arrival="76.00" arrivalLane="gneE7_0" arrivalPos="282.05" arrivalSpeed="13.56" duration="74.00" routeLength="573.04" waitSteps="9" timeLoss="32.72" rerouteNo="0" devices="tripinfo_0" vType="passenger" speedFactor="1.00" vaporized=""/>
    <tripinfo id="5" depart="17.00" departLane="gneE6_0" departPos="0.00" departSpeed="0.00" departDelay="1.00" arrival="77.00" arrivalLane="gneE3_0" arrivalPos="282.05" arrivalSpeed="13.72" duration="60.00" routeLength="602.74" waitSteps="0" timeLoss="15.68" rerouteNo="0" devices="tripinfo_5" vType="passenger" speedFactor="1.00" vaporized=""/>
    <tripinfo id="2" depart="7.00" departLane="gneE6_0" departPos="0.00" departSpeed="0.00" departDelay="3.00" arrival="79.00" arrivalLane="gneE1_0" arrivalPos="282.05" arrivalSpeed="13.59" duration="72.00" routeLength="600.37" waitSteps="4" timeLoss="28.34" rerouteNo="0" devices="tripinfo_2" vType="passenger" speedFactor="1.00" vaporized=""/>
    <tripinfo id="3" depart="12.00" departLane="gneE6_0" departPos="0.00" departSpeed="0.00" departDelay="7.00" arrival="81.00" arrivalLane="gneE1_0" arrivalPos="282.05" arrivalSpeed="13.82" duration="69.00" routeLength="600.37" waitSteps="0" timeLoss="25.04" rerouteNo="0" devices="tripinfo_3" vType="passenger" speedFactor="1.00" vaporized=""/>
    <tripinfo id="8" depart="29.00" departLane="gneE2_0" departPos="0.00" departSpeed="0.00" departDelay="0.00" arrival="85.00" arrivalLane="gneE5_0" arrivalPos="282.05" arrivalSpeed="13.53" duration="56.00" routeLength="600.37" waitSteps="0" timeLoss="12.19" rerouteNo="0" devices="tripinfo_8" vType="passenger" speedFactor="1.00" vaporized=""/>
    <tripinfo id="1" depart="3.00" departLane="gneE2_0" departPos="0.00" departSpeed="0.00" departDelay="0.00" arrival="89.00" arrivalLane="gneE7_0" arrivalPos="282.05" arrivalSpeed="13.82" duration="86.00" routeLength="602.74" waitSteps="9" timeLoss="41.72" rerouteNo="0" devices="tripinfo_1" vType="passenger" speedFactor="1.00" vaporized=""/>
    <tripinfo id="10" depart="42.00" departLane="gneE6_0" departPos="0.00" departSpeed="0.00" departDelay="0.00" arrival="98.00" arrivalLane="gneE1_0" arrivalPos="282.05" arrivalSpeed="13.55" duration="56.00" routeLength="600.37" waitSteps="0" timeLoss="12.52" rerouteNo="0" devices="tripinfo_10" vType="passenger" speedFactor="1.00" vaporized=""/>
    <tripinfo id="16" depart="68.00" departLane="gneE4_0" departPos="0.00" departSpeed="0.00" departDelay="0.00" arrival="123.00" arrivalLane="gneE7_1" arrivalPos="282.05" arrivalSpeed="13.60" duration="55.00" routeLength="600.02" waitSteps="0" timeLoss="11.68" rerouteNo="0" devices="tripinfo_16" vType="passenger" speedFactor="1.00" vaporized=""/>
    <tripinfo id="17" depart="73.00" departLane="gneE4_0" departPos="0.00" departSpeed="0.00" departDelay="1.00" arrival="128.00" arrivalLane="gneE7_1" arrivalPos="282.05" arrivalSpeed="13.52" duration="55.00" routeLength="600.02" waitSteps="0" timeLoss="11.20" rerouteNo="0" devices="tripinfo_17" vType="passenger" speedFactor="1.00" vaporized=""/>
    <tripinfo id="7" depart="24.00" departLane="gneE0_0" departPos="0.00" departSpeed="0.00" departDelay="0.00" arrival="129.00" arrivalLane="gneE3_1" arrivalPos="282.05" arrivalSpeed="13.74" duration="105.00" routeLength="600.02" waitSteps="38" timeLoss="61.48" rerouteNo="0" devices="tripinfo_7" vType="passenger" speedFactor="1.00" vaporized=""/>
    <tripinfo id="14" depart="51.00" departLane="gneE4_0" departPos="0.00" departSpeed="0.00" departDelay="0.00" arrival="130.00" arrivalLane="gneE7_0" arrivalPos="282.05" arrivalSpeed="13.66" duration="79.00" routeLength="600.02" waitSteps="11" timeLoss="34.92" rerouteNo="0" devices="tripinfo_14" vType="passenger" speedFactor="1.00" vaporized=""/>
    <tripinfo id="4" depart="14.00" departLane="gneE0_0" departPos="0.00" departSpeed="0.00" departDelay="0.00" arrival="130.00" arrivalLane="gneE3_0" arrivalPos="282.05" arrivalSpeed="13.81" duration="116.00" routeLength="600.02" waitSteps="47" timeLoss="72.40" rerouteNo="0" devices="tripinfo_4" vType="passenger" speedFactor="1.00" vaporized=""/>
</tripinfos>
" depart="72.00" departLane="gneE4_0" departPos="0.00" departSpeed="0.00" departDelay="0.00" arrival="130.00" arrivalLane="gneE1_2" arrivalPos="282.05" arrivalSpeed="13.80" duration="58.00" routeLength="597.42" waitSteps="0" timeLoss="14.30" rerouteNo="0" devices="tripinfo_18" vType="passenger" speedFactor="1.00" vaporized=""/>
    <tripinfo id="8" depart="24.00" departLane="gneE0_0" departPos="0.00" departSpeed="0.00" departDelay="0.00" arrival="130.00" arrivalLane="gneE3_0" arrivalPos="282.05" arrivalSpeed="13.72" duration="106.00" routeLength="600.02" waitSteps="38" timeLoss="62.70" rerouteNo="0" devices="tripinfo_8" vType="passenger" speedFactor="1.00" vaporized=""/>
</tripinfos>
