<?xml version="1.0" encoding="UTF-8"?>

<!-- generated on Mon Oct 29 22:32:18 2018 by SUMO Version 0.32.0
<?xml version="1.0" encoding="UTF-8"?>

<configuration xmlns:xsi="http://www.w3.org/2001/XMLSchema-instance" xsi:noNamespaceSchemaLocation="http://sumo.dlr.de/xsd/sumoConfiguration.xsd">

    <input>
        <net-file value="Data/State_Street_4500_South.net.xml"/>
        <route-files value="Data/State_Street_4500_South.rou.xml"/>
        <additional-files value="Data/State_Street_4500_South.det.xml"/>
    </input>

    <output>
        <tripinfo-output value="tripinfo.xml"/>
    </output>

    <time>
        <begin value="0"/>
    </time>

    <processing>
        <time-to-teleport value="-1"/>
    </processing>

    <report>
        <verbose value="true"/>
        <no-step-log value="true"/>
    </report>

    <traci_server>
        <remote-port value="45535"/>
    </traci_server>

    <gui_only>
        <gui-settings-file value="Data/State_Street_4500_South.settings.xml"/>
    </gui_only>

</configuration>
-->

<tripinfos xmlns:xsi="http://www.w3.org/2001/XMLSchema-instance" xsi:noNamespaceSchemaLocation="http://sumo.dlr.de/xsd/tripinfo_file.xsd">
    <tripinfo id="0" depart="1.00" departLane="gneE4_0" departPos="0.00" departSpeed="0.00" departDelay="0.00" arrival="60.00" arrivalLane="gneE1_1" arrivalPos="282.05" arrivalSpeed="13.57" duration="59.00" routeLength="597.42" waitSteps="0" timeLoss="15.46" rerouteNo="0" devices="tripinfo_0" vType="passenger" speedFactor="1.00" vaporized=""/>
    <tripinfo id="4" depart="14.00" departLane="gneE6_0" departPos="0.00" departSpeed="0.00" departDelay="0.00" arrival="69.00" arrivalLane="gneE1_1" arrivalPos="282.05" arrivalSpeed="13.59" duration="55.00" routeLength="600.37" waitSteps="0" timeLoss="11.64" rerouteNo="0" devices="tripinfo_4" vType="passenger" speedFactor="1.00" vaporized=""/>
    <tripinfo id="3" depart="13.00" departLane="gneE2_0" departPos="0.00" departSpeed="0.00" departDelay="0.00" arrival="70.00" arrivalLane="gneE5_0" arrivalPos="282.05" arrivalSpeed="13.87" duration="57.00" routeLength="600.37" waitSteps="0" timeLoss="13.08" rerouteNo="0" devices="tripinfo_3" vType="passenger" speedFactor="1.00" vaporized=""/>
    <tripinfo id="5" depart="18.00" departLane="gneE2_0" departPos="0.00" departSpeed="0.00" departDelay="0.00" arrival="73.00" arrivalLane="gneE5_0" arrivalPos="282.05" arrivalSpeed="13.50" duration="55.00" routeLength="600.37" waitSteps="0" timeLoss="11.40" rerouteNo="0" devices="tripinfo_5" vType="passenger" speedFactor="1.00" vaporized=""/>
    <tripinfo id="7" depart="20.00" departLane="gneE6_0" departPos="0.00" departSpeed="0.00" departDelay="0.00" arrival="75.00" arrivalLane="gneE1_1" arrivalPos="282.05" arrivalSpeed="13.66" duration="55.00" routeLength="600.37" waitSteps="0" timeLoss="11.77" rerouteNo="0" devices="tripinfo_7" vType="passenger" speedFactor="1.00" vaporized=""/>
    <tripinfo id="2" depart="8.00" departLane="gneE6_0" departPos="0.00" departSpeed="0.00" departDelay="4.00" arrival="80.00" arrivalLane="gneE3_0" arrivalPos="282.05" arrivalSpeed="13.80" duration="72.00" routeLength="602.74" waitSteps="2" timeLoss="27.69" rerouteNo="0" devices="tripinfo_2" vType="passenger" speedFactor="1.00" vaporized=""/>
    <tripinfo id="1" depart="3.00" departLane="gneE6_0" departPos="0.00" departSpeed="0.00" departDelay="0.00" arrival="80.00" arrivalLane="gneE1_0" arrivalPos="282.05" arrivalSpeed="13.78" duration="77.00" routeLength="600.37" waitSteps="8" timeLoss="33.14" rerouteNo="0" devices="tripinfo_1" vType="passenger" speedFactor="1.00" vaporized=""/>
    <tripinfo id="8" depart="25.00" departLane="gneE6_0" departPos="0.00" departSpeed="0.00" departDelay="2.00" arrival="80.00" arrivalLane="gneE1_1" arrivalPos="282.05" arrivalSpeed="13.65" duration="55.00" routeLength="600.37" waitSteps="0" timeLoss="11.29" rerouteNo="0" devices="tripinfo_8" vType="passenger" speedFactor="1.00" vaporized=""/>
    <tripinfo id="10" depart="30.00" departLane="gneE2_0" departPos="0.00" departSpeed="0.00" departDelay="0.00" arrival="85.00" arrivalLane="gneE5_0" arrivalPos="282.05" arrivalSpeed="13.79" duration="55.00" routeLength="600.37" waitSteps="0" timeLoss="11.64" rerouteNo="0" devices="tripinfo_10" vType="passenger" speedFactor="1.00" vaporized=""/>
    <tripinfo id="9" depart="30.00" departLane="gneE6_0" departPos="0.00" departSpeed="0.00" departDelay="6.00" arrival="86.00" arrivalLane="gneE3_1" arrivalPos="282.05" arrivalSpeed="13.84" duration="56.00" routeLength="602.74" waitSteps="0" timeLoss="11.92" rerouteNo="0" devices="tripinfo_9" vType="passenger" speedFactor="1.00" vaporized=""/>
    <tripinfo id="11" depart="35.00" departLane="gneE2_0" departPos="0.00" departSpeed="0.00" departDelay="2.00" arrival="89.00" arrivalLane="gneE3_0" arrivalPos="282.05" arrivalSpeed="13.71" duration="54.00" routeLength="573.04" waitSteps="0" timeLoss="12.53" rerouteNo="0" devices="tripinfo_11" vType="passenger" speedFactor="1.00" vaporized=""/>
    <tripinfo id="12" depart="41.00" departLane="gneE2_0" departPos="0.00" departSpeed="0.00" departDelay="6.00" arrival="94.00" arrivalLane="gneE3_0" arrivalPos="282.05" arrivalSpeed="13.85" duration="53.00" routeLength="573.04" waitSteps="0" timeLoss="11.21" rerouteNo="0" devices="tripinfo_12" vType="passenger" speedFactor="1.00" vaporized=""/>
    <tripinfo id="13" depart="43.00" departLane="gneE6_0" departPos="0.00" departSpeed="0.00" departDelay="0.00" arrival="98.00" arrivalLane="gneE1_0" arrivalPos="282.05" arrivalSpeed="13.77" duration="55.00" routeLength="600.37" waitSteps="0" timeLoss="10.93" rerouteNo="0" devices="tripinfo_13" vType="passenger" speedFactor="1.00" vaporized=""/>
    <tripinfo id="15" depart="48.00" departLane="gneE6_0" departPos="0.00" departSpeed="0.00" departDelay="1.00" arrival="104.00" arrivalLane="gneE1_0" arrivalPos="282.05" arrivalSpeed="13.77" duration="56.00" routeLength="600.37" waitSteps="0" timeLoss="11.81" rerouteNo="0" devices="tripinfo_15" vType="passenger" speedFactor="1.00" vaporized=""/>
    <tripinfo id="16" depart="48.00" departLane="gneE2_0" departPos="0.00" departSpeed="0.00" departDelay="0.00" arrival="104.00" arrivalLane="gneE5_0" arrivalPos="282.05" arrivalSpeed="13.80" duration="56.00" routeLength="600.37" waitSteps="0" timeLoss="12.73" rerouteNo="0" devices="tripinfo_16" vType="passenger" speedFactor="1.00" vaporized=""/>
    <tripinfo id="17" depart="53.00" departLane="gneE2_0" departPos="0.00" departSpeed="0.00" departDelay="5.00" arrival="106.00" arrivalLane="gneE3_0" arrivalPos="282.05" arrivalSpeed="13.49" duration="53.00" routeLength="573.04" waitSteps="0" timeLoss="11.27" rerouteNo="0" devices="tripinfo_17" vType="passenger" speedFactor="1.00" vaporized=""/>
    <tripinfo id="18" depart="57.00" departLane="gneE6_0" departPos="0.00" departSpeed="0.00" departDelay="0.00" arrival="113.00" arrivalLane="gneE1_0" arrivalPos="282.05" arrivalSpeed="13.75" duration="56.00" routeLength="600.37" waitSteps="0" timeLoss="11.88" rerouteNo="0" devices="tripinfo_18" vType="passenger" speedFactor="1.00" vaporized=""/>
    <tripinfo id="19" depart="63.00" departLane="gneE6_0" departPos="0.00" departSpeed="0.00" departDelay="2.00" arrival="116.00" arrivalLane="gneE7_0" arrivalPos="282.05" arrivalSpeed="13.49" duration="53.00" routeLength="573.04" waitSteps="0" timeLoss="11.74" rerouteNo="0" devices="tripinfo_19" vType="passenger" speedFactor="1.00" vaporized=""/>
    <tripinfo id="22" depart="65.00" departLane="gneE2_0" departPos="0.00" departSpeed="0.00" departDelay="0.00" arrival="118.00" arrivalLane="gneE3_0" arrivalPos="282.05" arrivalSpeed="13.74" duration="53.00" routeLength="573.04" waitSteps="0" timeLoss="11.53" rerouteNo="0" devices="tripinfo_22" vType="passenger" speedFactor="1.00" vaporized=""/>
    <tripinfo id="23" depart="68.00" departLane="gneE6_0" departPos="0.00" departSpeed="0.00" departDelay="3.00" arrival="123.00" arrivalLane="gneE1_0" arrivalPos="282.05" arrivalSpeed="13.76" duration="55.00" routeLength="600.37" waitSteps="0" timeLoss="11.28" rerouteNo="0" devices="tripinfo_23" vType="passenger" speedFactor="1.00" vaporized=""/>
    <tripinfo id="24" depart="70.00" departLane="gneE2_0" departPos="0.00" departSpeed="0.00" departDelay="4.00" arrival="125.00" arrivalLane="gneE7_1" arrivalPos="282.05" arrivalSpeed="13.53" duration="55.00" routeLength="602.74" waitSteps="0" timeLoss="11.18" rerouteNo="0" devices="tripinfo_24" vType="passenger" speedFactor="1.00" vaporized=""/>
    <tripinfo id="26" depart="75.00" departLane="gneE2_0" departPos="0.00" departSpeed="0.00" departDelay="6.00" arrival="131.00" arrivalLane="gneE5_0" arrivalPos="282.05" arrivalSpeed="13.65" duration="56.00" routeLength="600.37" waitSteps="0" timeLoss="12.47" rerouteNo="0" devices="tripinfo_26" vType="passenger" speedFactor="1.00" vaporized=""/>
    <tripinfo id="27" depart="80.00" departLane="gneE6_0" departPos="0.00" departSpeed="0.00" departDelay="0.00" arrival="136.00" arrivalLane="gneE3_1" arrivalPos="282.05" arrivalSpeed="13.53" duration="56.00" routeLength="602.74" waitSteps="0" timeLoss="11.95" rerouteNo="0" devices="tripinfo_27" vType="passenger" speedFactor="1.00" vaporized=""/>
    <tripinfo id="28" depart="85.00" departLane="gneE6_0" departPos="0.00" departSpeed="0.00" departDelay="4.00" arrival="138.00" arrivalLane="gneE7_0" arrivalPos="282.05" arrivalSpeed="13.88" duration="53.00" routeLength="573.04" waitSteps="0" timeLoss="11.06" rerouteNo="0" devices="tripinfo_28" vType="passenger" speedFactor="1.00" vaporized=""/>
    <tripinfo id="31" depart="85.00" departLane="gneE2_0" departPos="0.00" departSpeed="0.00" departDelay="0.00" arrival="141.00" arrivalLane="gneE5_0" arrivalPos="282.05" arrivalSpeed="13.60" duration="56.00" routeLength="600.37" waitSteps="0" timeLoss="11.91" rerouteNo="0" devices="tripinfo_31" vType="passenger" speedFactor="1.00" vaporized=""/>
    <tripinfo id="29" depart="90.00" departLane="gneE6_0" departPos="0.00" departSpeed="0.00" departDelay="8.00" arrival="145.00" arrivalLane="gneE1_0" arrivalPos="282.05" arrivalSpeed="13.78" duration="55.00" routeLength="600.37" waitSteps="0" timeLoss="11.02" rerouteNo="0" devices="tripinfo_29" vType="passenger" speedFactor="1.00" vaporized=""/>
    <tripinfo id="32" depart="90.00" departLane="gneE2_0" departPos="0.00" departSpeed="0.00" departDelay="1.00" arrival="146.00" arrivalLane="gneE7_1" arrivalPos="282.05" arrivalSpeed="13.80" duration="56.00" routeLength="602.74" waitSteps="0" timeLoss="11.87" rerouteNo="0" devices="tripinfo_32" vType="passenger" speedFactor="1.00" vaporized=""/>
    <tripinfo id="34" depart="95.00" departLane="gneE6_0" departPos="0.00" departSpeed="0.00" departDelay="1.00" arrival="150.00" arrivalLane="gneE1_0" arrivalPos="282.05" arrivalSpeed="13.81" duration="55.00" routeLength="600.37" waitSteps="0" timeLoss="11.32" rerouteNo="0" devices="tripinfo_34" vType="passenger" speedFactor="1.00" vaporized=""/>
    <tripinfo id="33" depart="95.00" departLane="gneE2_0" departPos="0.00" departSpeed="0.00" departDelay="4.00" arrival="150.00" arrivalLane="gneE5_0" arrivalPos="282.05" arrivalSpeed="13.75" duration="55.00" routeLength="600.37" waitSteps="1" timeLoss="11.55" rerouteNo="0" devices="tripinfo_33" vType="passenger" speedFactor="1.00" vaporized=""/>
    <tripinfo id="35" depart="101.00" departLane="gneE2_0" departPos="0.00" departSpeed="0.00" departDelay="6.00" arrival="156.00" arrivalLane="gneE5_0" arrivalPos="282.05" arrivalSpeed="13.56" duration="55.00" routeLength="600.37" waitSteps="0" timeLoss="11.26" rerouteNo="0" devices="tripinfo_35" vType="passenger" speedFactor="1.00" vaporized=""/>
    <tripinfo id="36" depart="106.00" departLane="gneE2_0" departPos="0.00" departSpeed="0.00" departDelay="8.00" arrival="162.00" arrivalLane="gneE5_0" arrivalPos="282.05" arrivalSpeed="13.85" duration="56.00" routeLength="600.37" waitSteps="0" timeLoss="12.00" rerouteNo="0" devices="tripinfo_36" vType="passenger" speedFactor="1.00" vaporized=""/>
    <tripinfo id="42" depart="110.00" departLane="gneE6_0" departPos="0.00" departSpeed="0.00" departDelay="0.00" arrival="165.00" arrivalLane="gneE1_0" arrivalPos="282.05" arrivalSpeed="13.49" duration="55.00" routeLength="600.37" waitSteps="0" timeLoss="11.45" rerouteNo="0" devices="tripinfo_42" vType="passenger" speedFactor="1.00" vaporized=""/>
    <tripinfo id="43" depart="115.00" departLane="gneE6_0" departPos="0.00" departSpeed="0.00" departDelay="5.00" arrival="168.00" arrivalLane="gneE7_0" arrivalPos="282.05" arrivalSpeed="13.76" duration="53.00" routeLength="573.04" waitSteps="0" timeLoss="11.03" rerouteNo="0" devices="tripinfo_43" vType="passenger" speedFactor="1.00" vaporized=""/>
    <tripinfo id="44" depart="120.00" departLane="gneE6_0" departPos="0.00" departSpeed="0.00" departDelay="5.00" arrival="174.00" arrivalLane="gneE1_0" arrivalPos="282.05" arrivalSpeed="13.59" duration="54.00" routeLength="600.37" waitSteps="0" timeLoss="10.65" rerouteNo="0" devices="tripinfo_44" vType="passenger" speedFactor="1.00" vaporized=""/>
    <tripinfo id="46" depart="119.00" departLane="gneE2_0" departPos="0.00" departSpeed="0.00" departDelay="0.00" arrival="175.00" arrivalLane="gneE5_0" arrivalPos="282.05" arrivalSpeed="13.79" duration="56.00" routeLength="600.37" waitSteps="0" timeLoss="12.34" rerouteNo="0" devices="tripinfo_46" vType="passenger" speedFactor="1.00" vaporized=""/>
    <tripinfo id="45" depart="125.00" departLane="gneE6_0" departPos="0.00" departSpeed="0.00" departDelay="7.00" arrival="179.00" arrivalLane="gneE7_0" arrivalPos="282.05" arrivalSpeed="13.68" duration="54.00" routeLength="573.04" waitSteps="0" timeLoss="12.43" rerouteNo="0" devices="tripinfo_45" vType="passenger" speedFactor="1.00" vaporized=""/>
    <tripinfo id="49" depart="129.00" departLane="gneE2_0" departPos="0.00" departSpeed="0.00" departDelay="0.00" arrival="185.00" arrivalLane="gneE5_0" arrivalPos="282.05" arrivalSpeed="13.53" duration="56.00" routeLength="600.37" waitSteps="0" timeLoss="12.18" rerouteNo="0" devices="tripinfo_49" vType="passenger" speedFactor="1.00" vaporized=""/>
    <tripinfo id="51" depart="134.00" departLane="gneE2_0" departPos="0.00" departSpeed="0.00" departDelay="3.00" arrival="190.00" arrivalLane="gneE5_0" arrivalPos="282.05" arrivalSpeed="13.80" duration="56.00" routeLength="600.37" waitSteps="0" timeLoss="12.01" rerouteNo="0" devices="tripinfo_51" vType="passenger" speedFactor="1.00" vaporized=""/>
    <tripinfo id="39" depart="111.00" departLane="gneE2_0" departPos="0.00" departSpeed="0.00" departDelay="8.00" arrival="191.00" arrivalLane="gneE7_0" arrivalPos="282.05" arrivalSpeed="13.72" duration="80.00" routeLength="602.74" waitSteps="12" timeLoss="35.73" rerouteNo="0" devices="tripinfo_39" vType="passenger" speedFactor="1.00" vaporized=""/>
    <tripinfo id="48" depart="136.00" departLane="gneE6_0" departPos="0.00" departSpeed="0.00" departDelay="13.00" arrival="191.00" arrivalLane="gneE1_0" arrivalPos="282.05" arrivalSpeed="13.56" duration="55.00" routeLength="600.37" waitSteps="0" timeLoss="11.56" rerouteNo="0" devices="tripinfo_48" vType="passenger" speedFactor="1.00" vaporized=""/>
    <tripinfo id="53" depart="139.00" departLane="gneE2_0" departPos="0.00" departSpeed="0.00" departDelay="3.00" arrival="194.00" arrivalLane="gneE5_0" arrivalPos="282.05" arrivalSpeed="13.84" duration="55.00" routeLength="600.37" waitSteps="0" timeLoss="11.29" rerouteNo="0" devices="tripinfo_53" vType="passenger" speedFactor="1.00" vaporized=""/>
    <tripinfo id="50" depart="141.00" departLane="gneE6_0" departPos="0.00" departSpeed="0.00" departDelay="11.00" arrival="196.00" arrivalLane="gneE1_0" arrivalPos="282.05" arrivalSpeed="13.50" duration="55.00" routeLength="600.37" waitSteps="0" timeLoss="11.49" rerouteNo="0" devices="tripinfo_50" vType="passenger" speedFactor="1.00" vaporized=""/>
    <tripinfo id="52" depart="146.00" departLane="gneE6_0" departPos="0.00" departSpeed="0.00" departDelay="15.00" arrival="201.00" arrivalLane="gneE1_0" arrivalPos="282.05" arrivalSpeed="13.80" duration="55.00" routeLength="600.37" waitSteps="0" timeLoss="11.72" rerouteNo="0" devices="tripinfo_52" vType="passenger" speedFactor="1.00" vaporized=""/>
    <tripinfo id="47" depart="130.00" departLane="gneE6_0" departPos="0.00" departSpeed="0.00" departDelay="8.00" arrival="205.00" arrivalLane="gneE3_0" arrivalPos="282.05" arrivalSpeed="13.57" duration="75.00" routeLength="602.74" waitSteps="6" timeLoss="31.09" rerouteNo="0" devices="tripinfo_47" vType="passenger" speedFactor="1.00" vaporized=""/>
    <tripinfo id="56" depart="151.00" departLane="gneE6_0" departPos="0.00" departSpeed="0.00" departDelay="10.00" arrival="206.00" arrivalLane="gneE3_1" arrivalPos="282.05" arrivalSpeed="13.55" duration="55.00" routeLength="602.74" waitSteps="0" timeLoss="11.19" rerouteNo="0" devices="tripinfo_56" vType="passenger" speedFactor="1.00" vaporized=""/>
    <tripinfo id="57" depart="156.00" departLane="gneE6_0" departPos="0.00" departSpeed="0.00" departDelay="9.00" arrival="212.00" arrivalLane="gneE1_0" arrivalPos="282.05" arrivalSpeed="13.72" duration="56.00" routeLength="600.37" waitSteps="0" timeLoss="11.99" rerouteNo="0" devices="tripinfo_57" vType="passenger" speedFactor="1.00" vaporized=""/>
    <tripinfo id="60" depart="167.00" departLane="gneE0_0" departPos="0.00" departSpeed="0.00" departDelay="0.00" arrival="223.00" arrivalLane="gneE1_0" arrivalPos="282.05" arrivalSpeed="13.58" duration="56.00" routeLength="573.04" waitSteps="0" timeLoss="13.99" rerouteNo="0" devices="tripinfo_60" vType="passenger" speedFactor="1.00" vaporized=""/>
    <tripinfo id="61" depart="171.00" departLane="gneE6_0" departPos="0.00" departSpeed="0.00" departDelay="0.00" arrival="226.00" arrivalLane="gneE7_0" arrivalPos="282.05" arrivalSpeed="13.76" duration="55.00" routeLength="573.04" waitSteps="0" timeLoss="12.84" rerouteNo="0" devices="tripinfo_61" vType="passenger" speedFactor="1.00" vaporized=""/>
    <tripinfo id="63" depart="179.00" departLane="gneE2_0" departPos="0.00" departSpeed="0.00" departDelay="3.00" arrival="233.00" arrivalLane="gneE5_0" arrivalPos="282.05" arrivalSpeed="13.49" duration="54.00" routeLength="600.37" waitSteps="0" timeLoss="10.08" rerouteNo="0" devices="tripinfo_63" vType="passenger" speedFactor="1.00" vaporized=""/>
    <tripinfo id="64" depart="178.00" departLane="gneE6_0" departPos="0.00" departSpeed="0.00" departDelay="0.00" arrival="233.00" arrivalLane="gneE1_0" arrivalPos="282.05" arrivalSpeed="13.83" duration="55.00" routeLength="600.37" waitSteps="0" timeLoss="11.41" rerouteNo="0" devices="tripinfo_64" vType="passenger" speedFactor="1.00" vaporized=""/>
    <tripinfo id="66" depart="187.00" departLane="gneE6_0" departPos="0.00" departSpeed="0.00" departDelay="0.00" arrival="245.00" arrivalLane="gneE7_0" arrivalPos="282.05" arrivalSpeed="13.52" duration="58.00" routeLength="573.04" waitSteps="0" timeLoss="16.04" rerouteNo="0" devices="tripinfo_66" vType="passenger" speedFactor="1.00" vaporized=""/>
    <tripinfo id="6" depart="18.00" departLane="gneE0_0" departPos="0.00" departSpeed="0.00" departDelay="0.00" arrival="248.00" arrivalLane="gneE5_1" arrivalPos="282.05" arrivalSpeed="13.89" duration="230.00" routeLength="597.42" waitSteps="162" timeLoss="186.71" rerouteNo="0" devices="tripinfo_6" vType="passenger" speedFactor="1.00" vaporized=""/>
    <tripinfo id="30" depart="82.00" departLane="gneE0_0" departPos="0.00" departSpeed="0.00" departDelay="0.00" arrival="249.00" arrivalLane="gneE3_2" arrivalPos="282.05" arrivalSpeed="13.78" duration="167.00" routeLength="600.02" waitSteps="99" timeLoss="122.92" rerouteNo="0" devices="tripinfo_30" vType="passenger" speedFactor="1.00" vaporized=""/>
    <tripinfo id="14" depart="44.00" departLane="gneE0_0" departPos="0.00" departSpeed="0.00" departDelay="0.00" arrival="249.00" arrivalLane="gneE3_0" arrivalPos="282.05" arrivalSpeed="13.57" duration="205.00" routeLength="600.02" waitSteps="138" timeLoss="161.48" rerouteNo="0" devices="tripinfo_14" vType="passenger" speedFactor="1.00" vaporized=""/>
    <tripinfo id="20" depart="61.00" departLane="gneE0_0" departPos="0.00" departSpeed="0.00" departDelay="0.00" arrival="249.00" arrivalLane="gneE3_1" arrivalPos="282.05" arrivalSpeed="13.87" duration="188.00" routeLength="600.02" waitSteps="121" timeLoss="144.04" rerouteNo="0" devices="tripinfo_20" vType="passenger" speedFactor="1.00" vaporized=""/>
    <tripinfo id="69" depart="195.00" departLane="gneE0_0" departPos="0.00" departSpeed="0.00" departDelay="0.00" arrival="249.00" arrivalLane="gneE1_0" arrivalPos="282.05" arrivalSpeed="13.61" duration="54.00" routeLength="573.04" waitSteps="0" timeLoss="12.16" rerouteNo="0" devices="tripinfo_69" vType="passenger" speedFactor="1.00" vaporized=""/>
    <tripinfo id="55" depart="145.00" departLane="gneE0_0" departPos="0.00" departSpeed="0.00" departDelay="5.00" arrival="251.00" arrivalLane="gneE5_1" arrivalPos="282.05" arrivalSpeed="13.68" duration="106.00" routeLength="597.42" waitSteps="38" timeLoss="62.43" rerouteNo="0" devices="tripinfo_55" vType="passenger" speedFactor="1.00" vaporized=""/>
    <tripinfo id="41" depart="110.00" departLane="gneE0_0" departPos="0.00" departSpeed="0.00" departDelay="5.00" arrival="251.00" arrivalLane="gneE3_2" arrivalPos="282.05" arrivalSpeed="13.76" duration="141.00" routeLength="600.02" waitSteps="72" timeLoss="97.41" rerouteNo="0" devices="tripinfo_41" vType="passenger" speedFactor="1.00" vaporized=""/>
    <tripinfo id="25" depart="67.00" departLane="gneE0_0" departPos="0.00" departSpeed="0.00" departDelay="0.00" arrival="251.00" arrivalLane="gneE3_0" arrivalPos="282.05" arrivalSpeed="13.76" duration="184.00" routeLength="600.02" waitSteps="116" timeLoss="140.26" rerouteNo="0" devices="tripinfo_25" vType="passenger" speedFactor="1.00" vaporized=""/>
    <tripinfo id="67" depart="194.00" departLane="gneE6_0" departPos="0.00" departSpeed="0.00" departDelay="0.00" arrival="251.00" arrivalLane="gneE7_0" arrivalPos="282.05" arrivalSpeed="13.58" duration="57.00" routeLength="573.04" waitSteps="0" timeLoss="15.44" rerouteNo="0" devices="tripinfo_67" vType="passenger" speedFactor="1.00" vaporized=""/>
    <tripinfo id="37" depart="100.00" departLane="gneE0_0" departPos="0.00" departSpeed="0.00" departDelay="0.00" arrival="252.00" arrivalLane="gneE3_1" arrivalPos="282.05" arrivalSpeed="13.54" duration="152.00" routeLength="600.02" waitSteps="82" timeLoss="107.92" rerouteNo="0" devices="tripinfo_37" vType="passenger" speedFactor="1.00" vaporized=""/>
    <tripinfo id="58" depart="162.00" departLane="gneE0_0" departPos="0.00" departSpeed="0.00" departDelay="0.00" arrival="253.00" arrivalLane="gneE5_1" arrivalPos="282.05" arrivalSpeed="13.52" duration="91.00" routeLength="597.42" waitSteps="23" timeLoss="47.63" rerouteNo="0" devices="tripinfo_58" vType="passenger" speedFactor="1.00" vaporized=""/>
    <tripinfo id="62" depart="174.00" departLane="gneE2_0" departPos="0.00" departSpeed="0.00" departDelay="0.00" arrival="253.00" arrivalLane="gneE7_1" arrivalPos="282.05" arrivalSpeed="13.77" duration="79.00" routeLength="602.74" waitSteps="10" timeLoss="35.28" rerouteNo="0" devices="tripinfo_62" vType="passenger" speedFactor="1.00" vaporized=""/>
    <tripinfo id="54" depart="140.00" departLane="gneE0_0" departPos="0.00" departSpeed="0.00" departDelay="0.00" arrival="253.00" arrivalLane="gneE3_1" arrivalPos="282.05" arrivalSpeed="13.69" duration="113.00" routeLength="600.02" waitSteps="44" timeLoss="69.64" rerouteNo="0" devices="tripinfo_54" vType="passenger" speedFactor="1.00" vaporized=""/>
    <tripinfo id="38" depart="105.00" departLane="gneE0_0" departPos="0.00" departSpeed="0.00" departDelay="4.00" arrival="254.00" arrivalLane="gneE3_0" arrivalPos="282.05" arrivalSpeed="13.76" duration="149.00" routeLength="600.02" waitSteps="80" timeLoss="105.01" rerouteNo="0" devices="tripinfo_38" vType="passenger" speedFactor="1.00" vaporized=""/>
    <tripinfo id="70" depart="199.00" departLane="gneE2_0" departPos="0.00" departSpeed="0.00" departDelay="0.00" arrival="256.00" arrivalLane="gneE3_0" arrivalPos="282.05" arrivalSpeed="13.66" duration="57.00" routeLength="573.04" waitSteps="0" timeLoss="15.01" rerouteNo="0" devices="tripinfo_70" vType="passenger" speedFactor="1.00" vaporized=""/>
    <tripinfo id="80" depart="226.00" departLane="gneE0_0" departPos="0.00" departSpeed="0.00" departDelay="0.00" arrival="281.00" arrivalLane="gneE1_0" arrivalPos="282.05" arrivalSpeed="13.62" duration="55.00" routeLength="573.04" waitSteps="0" timeLoss="13.26" rerouteNo="0" devices="tripinfo_80" vType="passenger" speedFactor="1.00" vaporized=""/>
    <tripinfo id="81" depart="231.00" departLane="gneE0_0" departPos="0.00" departSpeed="0.00" departDelay="0.00" arrival="289.00" arrivalLane="gneE1_0" arrivalPos="282.05" arrivalSpeed="13.53" duration="58.00" routeLength="573.04" waitSteps="0" timeLoss="16.58" rerouteNo="0" devices="tripinfo_81" vType="passenger" speedFactor="1.00" vaporized=""/>
    <tripinfo id="65" depart="185.00" departLane="gneE4_0" departPos="0.00" departSpeed="0.00" departDelay="0.00" arrival="291.00" arrivalLane="gneE7_1" arrivalPos="282.05" arrivalSpeed="13.61" duration="106.00" routeLength="600.02" waitSteps="38" timeLoss="62.55" rerouteNo="0" devices="tripinfo_65" vType="passenger" speedFactor="1.00" vaporized=""/>
    <tripinfo id="40" depart="104.00" departLane="gneE4_0" departPos="0.00" departSpeed="0.00" departDelay="0.00" arrival="291.00" arrivalLane="gneE7_0" arrivalPos="282.05" arrivalSpeed="13.64" duration="187.00" routeLength="600.02" waitSteps="120" timeLoss="143.60" rerouteNo="0" devices="tripinfo_40" vType="passenger" speedFactor="1.00" vaporized=""/>
    <tripinfo id="78" depart="223.00" departLane="gneE4_0" departPos="0.00" departSpeed="0.00" departDelay="0.00" arrival="293.00" arrivalLane="gneE7_0" arrivalPos="282.05" arrivalSpeed="13.58" duration="70.00" routeLength="600.02" waitSteps="2" timeLoss="26.60" rerouteNo="0" devices="tripinfo_78" vType="passenger" speedFactor="1.00" vaporized=""/>
    <tripinfo id="21" depart="61.00" departLane="gneE4_0" departPos="0.00" departSpeed="0.00" departDelay="0.00" arrival="298.00" arrivalLane="gneE1_1" arrivalPos="282.05" arrivalSpeed="13.65" duration="237.00" routeLength="597.42" waitSteps="162" timeLoss="193.12" rerouteNo="0" devices="tripinfo_21" vType="passenger" speedFactor="1.00" vaporized=""/>
    <tripinfo id="59" depart="163.00" departLane="gneE4_0" departPos="0.00" departSpeed="0.00" departDelay="0.00" arrival="301.00" arrivalLane="gneE1_1" arrivalPos="282.05" arrivalSpeed="13.67" duration="138.00" routeLength="597.42" waitSteps="61" timeLoss="94.04" rerouteNo="0" devices="tripinfo_59" vType="passenger" speedFactor="1.00" vaporized=""/>
    <tripinfo id="75" depart="212.00" departLane="gneE4_0" departPos="0.00" departSpeed="0.00" departDelay="0.00" arrival="303.00" arrivalLane="gneE1_1" arrivalPos="282.05" arrivalSpeed="13.73" duration="91.00" routeLength="597.42" waitSteps="14" timeLoss="47.13" rerouteNo="0" devices="tripinfo_75" vType="passenger" speedFactor="1.00" vaporized=""/>
    <tripinfo id="84" depart="253.00" departLane="gneE2_0" departPos="0.00" departSpeed="0.00" departDelay="0.00" arrival="336.00" arrivalLane="gneE7_2" arrivalPos="282.05" arrivalSpeed="13.80" duration="83.00" routeLength="602.74" waitSteps="16" timeLoss="39.65" rerouteNo="0" devices="tripinfo_84" vType="passenger" speedFactor="1.00" vaporized=""/>
    <tripinfo id="77" depart="223.00" departLane="gneE2_0" departPos="0.00" departSpeed="0.00" departDelay="2.00" arrival="337.00" arrivalLane="gneE7_0" arrivalPos="282.05" arrivalSpeed="13.53" duration="114.00" routeLength="602.74" waitSteps="45" timeLoss="70.10" rerouteNo="0" devices="tripinfo_77" vType="passenger" speedFactor="1.00" vaporized=""/>
    <tripinfo id="90" depart="283.00" departLane="gneE2_0" departPos="0.00" departSpeed="0.00" departDelay="2.00" arrival="375.00" arrivalLane="gneE5_2" arrivalPos="282.05" arrivalSpeed="13.67" duration="92.00" routeLength="600.37" waitSteps="25" timeLoss="48.59" rerouteNo="0" devices="tripinfo_90" vType="passenger" speedFactor="1.00" vaporized=""/>
    <tripinfo id="74" depart="214.00" departLane="gneE6_0" departPos="0.00" departSpeed="0.00" departDelay="2.00" arrival="375.00" arrivalLane="gneE1_2" arrivalPos="282.05" arrivalSpeed="13.68" duration="161.00" routeLength="600.37" waitSteps="91" timeLoss="117.09" rerouteNo="0" devices="tripinfo_74" vType="passenger" speedFactor="1.00" vaporized=""/>
    <tripinfo id="68" depart="199.00" departLane="gneE6_0" departPos="0.00" departSpeed="0.00" departDelay="4.00" arrival="375.00" arrivalLane="gneE1_0" arrivalPos="282.05" arrivalSpeed="13.62" duration="176.00" routeLength="600.37" waitSteps="108" timeLoss="132.35" rerouteNo="0" devices="tripinfo_68" vType="passenger" speedFactor="1.00" vaporized=""/>
    <tripinfo id="72" depart="204.00" departLane="gneE2_0" departPos="0.00" departSpeed="0.00" departDelay="1.00" arrival="376.00" arrivalLane="gneE5_0" arrivalPos="282.05" arrivalSpeed="13.53" duration="172.00" routeLength="600.37" waitSteps="104" timeLoss="128.71" rerouteNo="0" devices="tripinfo_72" vType="passenger" speedFactor="1.00" vaporized=""/>
    <tripinfo id="76" depart="218.00" departLane="gneE2_0" departPos="0.00" departSpeed="0.00" departDelay="0.00" arrival="376.00" arrivalLane="gneE5_1" arrivalPos="282.05" arrivalSpeed="13.83" duration="158.00" routeLength="600.37" waitSteps="89" timeLoss="114.66" rerouteNo="0" devices="tripinfo_76" vType="passenger" speedFactor="1.00" vaporized=""/>
    <tripinfo id="71" depart="204.00" departLane="gneE6_0" departPos="0.00" departSpeed="0.00" departDelay="5.00" arrival="376.00" arrivalLane="gneE1_1" arrivalPos="282.05" arrivalSpeed="13.63" duration="172.00" routeLength="600.37" waitSteps="104" timeLoss="127.84" rerouteNo="0" devices="tripinfo_71" vType="passenger" speedFactor="1.00" vaporized=""/>