<?xml version="1.0" encoding="UTF-8"?>

<!-- generated on Tue Oct 16 00:22:51 2018 by Eclipse SUMO GUI Version 1.0.1
<configuration xmlns:xsi="http://www.w3.org/2001/XMLSchema-instance" xsi:noNamespaceSchemaLocation="http://sumo.dlr.de/xsd/sumoConfiguration.xsd">

    <input>
        <net-file value="Data/State_Street_4500_South.net.xml"/>
        <route-files value="Data/State_Street_4500_South.rou.xml"/>
        <additional-files value="Data/State_Street_4500_South.det.xml"/>
    </input>

    <output>
        <tripinfo-output value="tripinfo.xml"/>
    </output>

    <time>
        <begin value="0"/>
    </time>

    <processing>
        <time-to-teleport value="-1"/>
    </processing>

    <report>
        <verbose value="true"/>
        <no-step-log value="true"/>
    </report>

    <traci_server>
        <remote-port value="64115"/>
    </traci_server>

    <gui_only>
        <gui-settings-file value="Data/State_Street_4500_South.settings.xml"/>
    </gui_only>

</configuration>
-->

<tripinfos xmlns:xsi="http://www.w3.org/2001/XMLSchema-instance" xsi:noNamespaceSchemaLocation="http://sumo.dlr.de/xsd/tripinfo_file.xsd">
    <tripinfo id="0" depart="2.00" departLane="gneE0_0" departPos="5.10" departSpeed="0.00" departDelay="0.00" arrival="59.00" arrivalLane="gneE5_2" arrivalPos="282.05" arrivalSpeed="14.56" duration="57.00" routeLength="592.32" waitingTime="0.00" waitingCount="0" stopTime="0.00" timeLoss="16.17" rerouteNo="0" devices="tripinfo_0" vType="passenger" speedFactor="1.06" vaporized=""/>
    <tripinfo id="4" depart="16.00" departLane="gneE2_0" departPos="5.10" departSpeed="0.00" departDelay="4.00" arrival="69.00" arrivalLane="gneE5_1" arrivalPos="282.05" arrivalSpeed="15.15" duration="53.00" routeLength="595.27" waitingTime="0.00" waitingCount="0" stopTime="0.00" timeLoss="13.56" rerouteNo="0" devices="tripinfo_4" vType="passenger" speedFactor="1.09" vaporized=""/>
    <tripinfo id="6" depart="17.00" departLane="gneE6_0" departPos="5.10" departSpeed="0.00" departDelay="0.00" arrival="73.00" arrivalLane="gneE1_1" arrivalPos="282.05" arrivalSpeed="14.09" duration="56.00" routeLength="595.27" waitingTime="0.00" waitingCount="0" stopTime="0.00" timeLoss="13.53" rerouteNo="0" devices="tripinfo_6" vType="passenger" speedFactor="1.02" vaporized=""/>
    <tripinfo id="2" depart="11.00" departLane="gneE6_0" departPos="5.10" departSpeed="0.00" departDelay="1.00" arrival="74.00" arrivalLane="gneE1_0" arrivalPos="282.05" arrivalSpeed="12.04" duration="63.00" routeLength="595.27" waitingTime="0.00" waitingCount="0" stopTime="0.00" timeLoss="13.78" rerouteNo="0" devices="tripinfo_2" vType="passenger" speedFactor="0.89" vaporized=""/>
    <tripinfo id="3" depart="11.00" departLane="gneE2_0" departPos="5.10" departSpeed="0.00" departDelay="0.00" arrival="77.00" arrivalLane="gneE5_0" arrivalPos="282.05" arrivalSpeed="11.53" duration="66.00" routeLength="595.27" waitingTime="0.00" waitingCount="0" stopTime="0.00" timeLoss="15.71" rerouteNo="0" devices="tripinfo_3" vType="passenger" speedFactor="0.86" vaporized=""/>
    <tripinfo id="7" depart="22.00" departLane="gneE6_0" departPos="5.10" departSpeed="0.00" departDelay="4.00" arrival="79.00" arrivalLane="gneE7_0" arrivalPos="282.05" arrivalSpeed="12.16" duration="57.00" routeLength="567.94" waitingTime="0.00" waitingCount="0" stopTime="0.00" timeLoss="10.78" rerouteNo="0" devices="tripinfo_7" vType="passenger" speedFactor="0.89" vaporized=""/>
    <tripinfo id="1" depart="6.00" departLane="gneE6_0" departPos="5.10" departSpeed="0.00" departDelay="0.00" arrival="82.00" arrivalLane="gneE1_0" arrivalPos="282.05" arrivalSpeed="11.46" duration="76.00" routeLength="595.27" waitingTime="3.00" waitingCount="1" stopTime="0.00" timeLoss="24.27" rerouteNo="0" devices="tripinfo_1" vType="passenger" speedFactor="0.84" vaporized=""/>
    <tripinfo id="8" depart="28.00" departLane="gneE2_0" departPos="5.10" departSpeed="0.00" departDelay="0.00" arrival="82.00" arrivalLane="gneE5_0" arrivalPos="282.05" arrivalSpeed="14.40" duration="54.00" routeLength="595.27" waitingTime="0.00" waitingCount="0" stopTime="0.00" timeLoss="12.34" rerouteNo="0" devices="tripinfo_8" vType="passenger" speedFactor="1.05" vaporized=""/>
    <tripinfo id="10" depart="31.00" departLane="gneE6_0" departPos="5.10" departSpeed="0.00" departDelay="0.00" arrival="85.00" arrivalLane="gneE7_0" arrivalPos="282.05" arrivalSpeed="12.96" duration="54.00" routeLength="567.94" waitingTime="0.00" waitingCount="0" stopTime="0.00" timeLoss="10.30" rerouteNo="0" devices="tripinfo_10" vType="passenger" speedFactor="0.94" vaporized=""/>
    <tripinfo id="13" depart="41.00" departLane="gneE2_0" departPos="5.10" departSpeed="0.00" departDelay="2.00" arrival="93.00" arrivalLane="gneE5_1" arrivalPos="282.05" arrivalSpeed="14.84" duration="52.00" routeLength="595.27" waitingTime="0.00" waitingCount="0" stopTime="0.00" timeLoss="12.13" rerouteNo="0" devices="tripinfo_13" vType="passenger" speedFactor="1.08" vaporized=""/>
    <tripinfo id="12" depart="36.00" departLane="gneE2_0" departPos="5.10" departSpeed="0.00" departDelay="0.00" arrival="93.00" arrivalLane="gneE5_0" arrivalPos="282.05" arrivalSpeed="12.74" duration="57.00" routeLength="595.27" waitingTime="0.00" waitingCount="0" stopTime="0.00" timeLoss="10.68" rerouteNo="0" devices="tripinfo_12" vType="passenger" speedFactor="0.94" vaporized=""/>
    <tripinfo id="16" depart="46.00" departLane="gneE2_0" departPos="5.10" departSpeed="0.00" departDelay="1.00" arrival="99.00" arrivalLane="gneE3_0" arrivalPos="282.05" arrivalSpeed="13.64" duration="53.00" routeLength="567.94" waitingTime="0.00" waitingCount="0" stopTime="0.00" timeLoss="11.56" rerouteNo="0" devices="tripinfo_16" vType="passenger" speedFactor="1.00" vaporized=""/>
    <tripinfo id="14" depart="40.00" departLane="gneE6_0" departPos="5.10" departSpeed="0.00" departDelay="0.00" arrival="99.00" arrivalLane="gneE1_0" arrivalPos="282.05" arrivalSpeed="11.64" duration="59.00" routeLength="595.27" waitingTime="0.00" waitingCount="0" stopTime="0.00" timeLoss="9.50" rerouteNo="0" devices="tripinfo_14" vType="passenger" speedFactor="0.87" vaporized=""/>
    <tripinfo id="15" depart="42.00" departLane="gneE0_0" departPos="5.10" departSpeed="0.00" departDelay="0.00" arrival="128.00" arrivalLane="gneE3_0" arrivalPos="282.05" arrivalSpeed="14.35" duration="86.00" routeLength="594.92" waitingTime="19.00" waitingCount="1" stopTime="0.00" timeLoss="44.86" rerouteNo="0" devices="tripinfo_15" vType="passenger" speedFactor="1.04" vaporized=""/>
    <tripinfo id="9" depart="29.00" departLane="gneE0_0" departPos="5.10" departSpeed="0.00" departDelay="0.00" arrival="128.00" arrivalLane="gneE1_0" arrivalPos="282.05" arrivalSpeed="13.03" duration="99.00" routeLength="567.94" waitingTime="32.00" waitingCount="1" stopTime="0.00" timeLoss="55.19" rerouteNo="0" devices="tripinfo_9" vType="passenger" speedFactor="0.94" vaporized=""/>
    <tripinfo id="5" depart="14.00" departLane="gneE4_0" departPos="5.10" departSpeed="0.00" departDelay="0.00" arrival="135.00" arrivalLane="gneE1_1" arrivalPos="282.05" arrivalSpeed="15.39" duration="121.00" routeLength="592.32" waitingTime="50.00" waitingCount="2" stopTime="0.00" timeLoss="82.26" rerouteNo="0" devices="tripinfo_5" vType="passenger" speedFactor="1.12" vaporized=""/>
    <tripinfo id="28" depart="85.00" departLane="gneE0_0" departPos="5.10" departSpeed="0.00" departDelay="0.00" arrival="139.00" arrivalLane="gneE3_0" arrivalPos="282.05" arrivalSpeed="13.99" duration="54.00" routeLength="594.92" waitingTime="0.00" waitingCount="0" stopTime="0.00" timeLoss="12.22" rerouteNo="0" devices="tripinfo_28" vType="passenger" speedFactor="1.04" vaporized=""/>
    <tripinfo id="11" depart="34.00" departLane="gneE4_0" departPos="5.10" departSpeed="0.00" departDelay="0.00" arrival="150.00" arrivalLane="gneE1_1" arrivalPos="282.05" arrivalSpeed="14.94" duration="116.00" routeLength="592.32" waitingTime="37.00" waitingCount="2" stopTime="0.00" timeLoss="76.65" rerouteNo="0" devices="tripinfo_11" vType="passenger" speedFactor="1.09" vaporized=""/>
    <tripinfo id="33" depart="96.00" departLane="gneE0_0" departPos="5.10" departSpeed="0.00" departDelay="0.00" arrival="154.00" arrivalLane="gneE3_0" arrivalPos="282.05" arrivalSpeed="12.23" duration="58.00" routeLength="594.92" waitingTime="0.00" waitingCount="0" stopTime="0.00" timeLoss="10.60" rerouteNo="0" devices="tripinfo_33" vType="passenger" speedFactor="0.91" vaporized=""/>
    <tripinfo id="30" depart="92.00" departLane="gneE4_0" departPos="5.10" departSpeed="0.00" departDelay="0.00" arrival="163.00" arrivalLane="gneE1_1" arrivalPos="282.05" arrivalSpeed="14.86" duration="71.00" routeLength="592.32" waitingTime="5.00" waitingCount="1" stopTime="0.00" timeLoss="30.58" rerouteNo="0" devices="tripinfo_30" vType="passenger" speedFactor="1.08" vaporized=""/>
    <tripinfo id="21" depart="72.00" departLane="gneE6_0" departPos="5.10" departSpeed="0.00" departDelay="0.00" arrival="173.00" arrivalLane="gneE1_1" arrivalPos="282.05" arrivalSpeed="15.94" duration="101.00" routeLength="595.27" waitingTime="35.00" waitingCount="1" stopTime="0.00" timeLoss="64.26" rerouteNo="0" devices="tripinfo_21" vType="passenger" speedFactor="1.17" vaporized=""/>
    <tripinfo id="17" depart="49.00" departLane="gneE6_0" departPos="5.10" departSpeed="0.00" departDelay="0.00" arrival="173.00" arrivalLane="gneE1_0" arrivalPos="282.05" arrivalSpeed="15.53" duration="124.00" routeLength="595.27" waitingTime="57.00" waitingCount="1" stopTime="0.00" timeLoss="85.64" rerouteNo="0" devices="tripinfo_17" vType="passenger" speedFactor="1.13" vaporized=""/>
    <tripinfo id="25" depart="87.00" departLane="gneE6_0" departPos="5.10" departSpeed="0.00" departDelay="5.00" arrival="174.00" arrivalLane="gneE1_1" arrivalPos="282.05" arrivalSpeed="13.97" duration="87.00" routeLength="595.27" waitingTime="20.00" waitingCount="1" stopTime="0.00" timeLoss="43.97" rerouteNo="0" devices="tripinfo_25" vType="passenger" speedFactor="1.01" vaporized=""/>
    <tripinfo id="20" depart="67.00" departLane="gneE2_0" departPos="5.10" departSpeed="0.00" departDelay="0.00" arrival="174.00" arrivalLane="gneE5_1" arrivalPos="282.05" arrivalSpeed="16.43" duration="107.00" routeLength="595.27" waitingTime="42.00" waitingCount="1" stopTime="0.00" timeLoss="70.50" rerouteNo="0" devices="tripinfo_20" vType="passenger" speedFactor="1.19" vaporized=""/>
    <tripinfo id="31" depart="95.00" departLane="gneE2_0" departPos="5.10" departSpeed="0.00" departDelay="2.00" arrival="174.00" arrivalLane="gneE5_2" arrivalPos="282.05" arrivalSpeed="14.53" duration="79.00" routeLength="595.27" waitingTime="11.00" waitingCount="1" stopTime="0.00" timeLoss="38.11" rerouteNo="0" devices="tripinfo_31" vType="passenger" speedFactor="1.06" vaporized=""/>
    <tripinfo id="18" depart="56.00" departLane="gneE2_0" departPos="5.10" departSpeed="0.00" departDelay="0.00" arrival="174.00" arrivalLane="gneE5_0" arrivalPos="282.05" arrivalSpeed="14.34" duration="118.00" routeLength="595.27" waitingTime="51.00" waitingCount="1" stopTime="0.00" timeLoss="76.31" rerouteNo="0" devices="tripinfo_18" vType="passenger" speedFactor="1.05" vaporized=""/>
    <tripinfo id="29" depart="90.00" departLane="gneE2_0" departPos="5.10" departSpeed="0.00" departDelay="0.00" arrival="175.00" arrivalLane="gneE3_0" arrivalPos="282.05" arrivalSpeed="15.37" duration="85.00" routeLength="567.94" waitingTime="21.00" waitingCount="1" stopTime="0.00" timeLoss="48.55" rerouteNo="0" devices="tripinfo_29" vType="passenger" speedFactor="1.12" vaporized=""/>
    <tripinfo id="24" depart="82.00" departLane="gneE6_0" departPos="5.10" departSpeed="0.00" departDelay="1.00" arrival="176.00" arrivalLane="gneE7_0" arrivalPos="282.05" arrivalSpeed="14.09" duration="94.00" routeLength="567.94" waitingTime="29.00" waitingCount="1" stopTime="0.00" timeLoss="53.28" rerouteNo="0" devices="tripinfo_24" vType="passenger" speedFactor="1.02" vaporized=""/>
    <tripinfo id="35" depart="105.00" departLane="gneE2_0" departPos="5.10" departSpeed="0.00" departDelay="3.00" arrival="177.00" arrivalLane="gneE5_2" arrivalPos="282.05" arrivalSpeed="12.86" duration="72.00" routeLength="595.27" waitingTime="0.00" waitingCount="0" stopTime="0.00" timeLoss="25.91" rerouteNo="0" devices="tripinfo_35" vType="passenger" speedFactor="0.94" vaporized=""/>
    <tripinfo id="22" depart="75.00" departLane="gneE2_0" departPos="5.10" departSpeed="0.00" departDelay="0.00" arrival="177.00" arrivalLane="gneE5_0" arrivalPos="282.05" arrivalSpeed="13.82" duration="102.00" routeLength="595.27" waitingTime="34.00" waitingCount="1" stopTime="0.00" timeLoss="58.44" rerouteNo="0" devices="tripinfo_22" vType="passenger" speedFactor="1.00" vaporized=""/>
    <tripinfo id="23" depart="77.00" departLane="gneE6_0" departPos="5.10" departSpeed="0.00" departDelay="1.00" arrival="177.00" arrivalLane="gneE1_0" arrivalPos="282.05" arrivalSpeed="13.42" duration="100.00" routeLength="595.27" waitingTime="31.00" waitingCount="1" stopTime="0.00" timeLoss="55.16" rerouteNo="0" devices="tripinfo_23" vType="passenger" speedFactor="0.97" vaporized=""/>
    <tripinfo id="34" depart="100.00" departLane="gneE2_0" departPos="5.10" departSpeed="0.00" departDelay="2.00" arrival="178.00" arrivalLane="gneE5_1" arrivalPos="282.05" arrivalSpeed="13.38" duration="78.00" routeLength="595.27" waitingTime="8.00" waitingCount="1" stopTime="0.00" timeLoss="33.85" rerouteNo="0" devices="tripinfo_34" vType="passenger" speedFactor="0.99" vaporized=""/>
    <tripinfo id="27" depart="97.00" departLane="gneE6_0" departPos="5.10" departSpeed="0.00" departDelay="12.00" arrival="180.00" arrivalLane="gneE7_1" arrivalPos="282.05" arrivalSpeed="15.34" duration="83.00" routeLength="567.94" waitingTime="17.00" waitingCount="1" stopTime="0.00" timeLoss="45.68" rerouteNo="0" devices="tripinfo_27" vType="passenger" speedFactor="1.12" vaporized=""/>
    <tripinfo id="26" depart="92.00" departLane="gneE6_0" departPos="5.10" departSpeed="0.00" departDelay="9.00" arrival="180.00" arrivalLane="gneE7_0" arrivalPos="282.05" arrivalSpeed="12.71" duration="88.00" routeLength="567.94" waitingTime="19.00" waitingCount="1" stopTime="0.00" timeLoss="43.13" rerouteNo="0" devices="tripinfo_26" vType="passenger" speedFactor="0.93" vaporized=""/>
    <tripinfo id="32" depart="102.00" departLane="gneE6_0" departPos="5.10" departSpeed="0.00" departDelay="8.00" arrival="182.00" arrivalLane="gneE7_0" arrivalPos="282.05" arrivalSpeed="14.11" duration="80.00" routeLength="567.94" waitingTime="12.00" waitingCount="1" stopTime="0.00" timeLoss="39.40" rerouteNo="0" devices="tripinfo_32" vType="passenger" speedFactor="1.03" vaporized=""/>
    <tripinfo id="19" depart="66.00" departLane="gneE6_0" departPos="5.10" departSpeed="0.00" departDelay="0.00" arrival="184.00" arrivalLane="gneE3_0" arrivalPos="282.05" arrivalSpeed="13.46" duration="118.00" routeLength="597.64" waitingTime="43.00" waitingCount="2" stopTime="0.00" timeLoss="74.28" rerouteNo="0" devices="tripinfo_19" vType="passenger" speedFactor="0.99" vaporized=""/>
    <tripinfo id="42" depart="127.00" departLane="gneE6_0" departPos="5.10" departSpeed="0.00" departDelay="4.00" arrival="185.00" arrivalLane="gneE3_2" arrivalPos="282.05" arrivalSpeed="13.35" duration="58.00" routeLength="597.64" waitingTime="0.00" waitingCount="0" stopTime="0.00" timeLoss="13.19" rerouteNo="0" devices="tripinfo_42" vType="passenger" speedFactor="0.97" vaporized=""/>
    <tripinfo id="43" depart="132.00" departLane="gneE6_0" departPos="5.10" departSpeed="0.00" departDelay="4.00" arrival="189.00" arrivalLane="gneE3_2" arrivalPos="282.05" arrivalSpeed="16.13" duration="57.00" routeLength="597.64" waitingTime="0.00" waitingCount="0" stopTime="0.00" timeLoss="20.22" rerouteNo="0" devices="tripinfo_43" vType="passenger" speedFactor="1.18" vaporized=""/>
    <tripinfo id="40" depart="122.00" departLane="gneE6_0" departPos="5.10" departSpeed="0.00" departDelay="1.00" arrival="189.00" arrivalLane="gneE3_1" arrivalPos="282.05" arrivalSpeed="13.64" duration="67.00" routeLength="597.64" waitingTime="0.00" waitingCount="0" stopTime="0.00" timeLoss="23.32" rerouteNo="0" devices="tripinfo_40" vType="passenger" speedFactor="1.01" vaporized=""/>
    <tripinfo id="49" depart="138.00" departLane="gneE6_0" departPos="5.10" departSpeed="0.00" departDelay="0.00" arrival="189.00" arrivalLane="gneE1_0" arrivalPos="282.05" arrivalSpeed="15.84" duration="51.00" routeLength="595.27" waitingTime="0.00" waitingCount="0" stopTime="0.00" timeLoss="12.94" rerouteNo="0" devices="tripinfo_49" vType="passenger" speedFactor="1.14" vaporized=""/>
    <tripinfo id="39" depart="117.00" departLane="gneE6_0" departPos="5.10" departSpeed="0.00" departDelay="0.00" arrival="190.00" arrivalLane="gneE3_0" arrivalPos="282.05" arrivalSpeed="10.80" duration="73.00" routeLength="597.64" waitingTime="0.00" waitingCount="0" stopTime="0.00" timeLoss="18.12" rerouteNo="0" devices="tripinfo_39" vType="passenger" speedFactor="0.79" vaporized=""/>
    <tripinfo id="50" depart="143.00" departLane="gneE6_0" departPos="5.10" departSpeed="0.00" departDelay="5.00" arrival="195.00" arrivalLane="gneE7_0" arrivalPos="282.05" arrivalSpeed="13.95" duration="52.00" routeLength="567.94" waitingTime="0.00" waitingCount="0" stopTime="0.00" timeLoss="11.74" rerouteNo="0" devices="tripinfo_50" vType="passenger" speedFactor="1.03" vaporized=""/>
    <tripinfo id="51" depart="143.00" departLane="gneE2_0" departPos="5.10" departSpeed="0.00" departDelay="0.00" arrival="195.00" arrivalLane="gneE5_0" arrivalPos="282.05" arrivalSpeed="15.02" duration="52.00" routeLength="595.27" waitingTime="0.00" waitingCount="0" stopTime="0.00" timeLoss="12.13" rerouteNo="0" devices="tripinfo_51" vType="passenger" speedFactor="1.10" vaporized=""/>
    <tripinfo id="44" depart="132.00" departLane="gneE2_0" departPos="5.10" departSpeed="0.00" departDelay="0.00" arrival="207.00" arrivalLane="gneE7_0" arrivalPos="282.05" arrivalSpeed="15.31" duration="75.00" routeLength="597.64" waitingTime="8.00" waitingCount="1" stopTime="0.00" timeLoss="35.96" rerouteNo="0" devices="tripinfo_44" vType="passenger" speedFactor="1.12" vaporized=""/>
    <tripinfo id="47" depart="138.00" departLane="gneE4_0" departPos="5.10" departSpeed="0.00" departDelay="4.00" arrival="224.00" arrivalLane="gneE7_1" arrivalPos="282.05" arrivalSpeed="14.33" duration="86.00" routeLength="594.92" waitingTime="19.00" waitingCount="1" stopTime="0.00" timeLoss="44.84" rerouteNo="0" devices="tripinfo_47" vType="passenger" speedFactor="1.05" vaporized=""/>
    <tripinfo id="41" depart="122.00" departLane="gneE4_0" departPos="5.10" departSpeed="0.00" departDelay="0.00" arrival="225.00" arrivalLane="gneE7_0" arrivalPos="282.05" arrivalSpeed="14.39" duration="103.00" routeLength="594.92" waitingTime="36.00" waitingCount="1" stopTime="0.00" timeLoss="61.49" rerouteNo="0" devices="tripinfo_41" vType="passenger" speedFactor="1.05" vaporized=""/>
    <tripinfo id="36" depart="104.00" departLane="gneE0_0" departPos="5.10" departSpeed="0.00" departDelay="0.00" arrival="226.00" arrivalLane="gneE3_0" arrivalPos="282.05" arrivalSpeed="13.86" duration="122.00" routeLength="594.92" waitingTime="55.00" waitingCount="1" stopTime="0.00" timeLoss="79.12" rerouteNo="0" devices="tripinfo_36" vType="passenger" speedFactor="1.02" vaporized=""/>
    <tripinfo id="46" depart="133.00" departLane="gneE4_0" departPos="5.10" departSpeed="0.00" departDelay="0.00" arrival="227.00" arrivalLane="gneE7_1" arrivalPos="282.05" arrivalSpeed="14.47" duration="94.00" routeLength="594.92" waitingTime="26.00" waitingCount="1" stopTime="0.00" timeLoss="53.14" rerouteNo="0" devices="tripinfo_46" vType="passenger" speedFactor="1.05" vaporized=""/>
    <tripinfo id="38" depart="113.00" departLane="gneE4_0" departPos="5.10" departSpeed="0.00" departDelay="0.00" arrival="227.00" arrivalLane="gneE7_0" arrivalPos="282.05" arrivalSpeed="12.66" duration="114.00" routeLength="594.92" waitingTime="43.00" waitingCount="1" stopTime="0.00" timeLoss="67.01" rerouteNo="0" devices="tripinfo_38" vType="passenger" speedFactor="0.93" vaporized=""/>
    <tripinfo id="52" depart="146.00" departLane="gneE0_0" departPos="5.10" departSpeed="0.00" departDelay="0.00" arrival="228.00" arrivalLane="gneE3_0" arrivalPos="282.05" arrivalSpeed="13.92" duration="82.00" routeLength="594.92" waitingTime="12.00" waitingCount="1" stopTime="0.00" timeLoss="39.01" rerouteNo="0" devices="tripinfo_52" vType="passenger" speedFactor="1.01" vaporized=""/>
    <tripinfo id="59" depart="168.00" departLane="gneE0_0" departPos="5.10" departSpeed="0.00" departDelay="0.00" arrival="231.00" arrivalLane="gneE5_1" arrivalPos="282.05" arrivalSpeed="11.79" duration="63.00" routeLength="592.32" waitingTime="0.00" waitingCount="0" stopTime="0.00" timeLoss="14.19" rerouteNo="0" devices="tripinfo_59" vType="passenger" speedFactor="0.87" vaporized=""/>
    <tripinfo id="45" depart="133.00" departLane="gneE0_0" departPos="5.10" departSpeed="0.00" departDelay="0.00" arrival="231.00" arrivalLane="gneE3_0" arrivalPos="282.05" arrivalSpeed="10.36" duration="98.00" routeLength="594.92" waitingTime="22.00" waitingCount="1" stopTime="0.00" timeLoss="41.46" rerouteNo="0" devices="tripinfo_45" vType="passenger" speedFactor="0.77" vaporized=""/>
    <tripinfo id="37" depart="108.00" departLane="gneE4_0" departPos="5.10" departSpeed="0.00" departDelay="0.00" arrival="237.00" arrivalLane="gneE1_1" arrivalPos="282.05" arrivalSpeed="12.65" duration="129.00" routeLength="592.32" waitingTime="55.00" waitingCount="2" stopTime="0.00" timeLoss="82.66" rerouteNo="0" devices="tripinfo_37" vType="passenger" speedFactor="0.93" vaporized=""/>
    <tripinfo id="61" depart="182.00" departLane="gneE0_0" departPos="5.10" departSpeed="0.00" departDelay="0.00" arrival="239.00" arrivalLane="gneE3_0" arrivalPos="282.05" arrivalSpeed="12.72" duration="57.00" routeLength="594.92" waitingTime="0.00" waitingCount="0" stopTime="0.00" timeLoss="10.93" rerouteNo="0" devices="tripinfo_61" vType="passenger" speedFactor="0.93" vaporized=""/>
    <tripinfo id="63" depart="191.00" departLane="gneE0_0" departPos="5.10" departSpeed="0.00" departDelay="0.00" arrival="243.00" arrivalLane="gneE3_0" arrivalPos="282.05" arrivalSpeed="15.33" duration="52.00" routeLength="594.92" waitingTime="0.00" waitingCount="0" stopTime="0.00" timeLoss="13.12" rerouteNo="0" devices="tripinfo_63" vType="passenger" speedFactor="1.11" vaporized=""/>
    <tripinfo id="48" depart="143.00" departLane="gneE4_0" departPos="5.10" departSpeed="0.00" departDelay="9.00" arrival="257.00" arrivalLane="gneE1_1" arrivalPos="282.05" arrivalSpeed="14.09" duration="114.00" routeLength="592.32" waitingTime="35.00" waitingCount="3" stopTime="0.00" timeLoss="72.25" rerouteNo="0" devices="tripinfo_48" vType="passenger" speedFactor="1.04" vaporized=""/>
    <tripinfo id="53" depart="149.00" departLane="gneE4_0" departPos="5.10" departSpeed="0.00" departDelay="0.00" arrival="258.00" arrivalLane="gneE1_2" arrivalPos="282.05" arrivalSpeed="14.66" duration="109.00" routeLength="592.32" waitingTime="28.00" waitingCount="3" stopTime="0.00" timeLoss="68.59" rerouteNo="0" devices="tripinfo_53" vType="passenger" speedFactor="1.06" vaporized=""/>
    <tripinfo id="65" depart="195.00" departLane="gneE4_0" departPos="5.10" departSpeed="0.00" departDelay="0.00" arrival="260.00" arrivalLane="gneE1_2" arrivalPos="282.05" arrivalSpeed="15.55" duration="65.00" routeLength="592.32" waitingTime="0.00" waitingCount="0" stopTime="0.00" timeLoss="26.83" rerouteNo="0" devices="tripinfo_65" vType="passenger" speedFactor="1.13" vaporized=""/>
    <tripinfo id="54" depart="151.00" departLane="gneE6_0" departPos="5.10" departSpeed="0.00" departDelay="0.00" arrival="270.00" arrivalLane="gneE1_0" arrivalPos="282.05" arrivalSpeed="14.41" duration="119.00" routeLength="595.27" waitingTime="53.00" waitingCount="1" stopTime="0.00" timeLoss="77.95" rerouteNo="0" devices="tripinfo_54" vType="passenger" speedFactor="1.06" vaporized=""/>
    <tripinfo id="58" depart="172.00" departLane="gneE6_0" departPos="5.10" departSpeed="0.00" departDelay="9.00" arrival="271.00" arrivalLane="gneE1_1" arrivalPos="282.05" arrivalSpeed="13.92" duration="99.00" routeLength="595.27" waitingTime="30.00" waitingCount="1" stopTime="0.00" timeLoss="55.33" rerouteNo="0" devices="tripinfo_58" vType="passenger" speedFactor="1.00" vaporized=""/>
    <tripinfo id="56" depart="161.00" departLane="gneE6_0" departPos="5.10" departSpeed="0.00" departDelay="7.00" arrival="272.00" arrivalLane="gneE1_0" arrivalPos="282.05" arrivalSpeed="12.31" duration="111.00" routeLength="595.27" waitingTime="41.00" waitingCount="1" stopTime="0.00" timeLoss="64.01" rerouteNo="0" devices="tripinfo_56" vType="passenger" speedFactor="0.91" vaporized=""/>
    <tripinfo id="55" depart="156.00" departLane="gneE6_0" departPos="5.10" departSpeed="0.00" departDelay="3.00" arrival="272.00" arrivalLane="gneE7_0" arrivalPos="282.05" arrivalSpeed="12.56" duration="116.00" routeLength="567.94" waitingTime="47.00" waitingCount="1" stopTime="0.00" timeLoss="70.89" rerouteNo="0" devices="tripinfo_55" vType="passenger" speedFactor="0.92" vaporized=""/>
    <tripinfo id="70" depart="215.00" departLane="gneE6_0" departPos="5.10" departSpeed="0.00" departDelay="9.00" arrival="272.00" arrivalLane="gneE1_2" arrivalPos="282.05" arrivalSpeed="13.95" duration="57.00" routeLength="595.27" waitingTime="0.00" waitingCount="0" stopTime="0.00" timeLoss="14.28" rerouteNo="0" devices="tripinfo_70" vType="passenger" speedFactor="1.01" vaporized=""/>
    <tripinfo id="62" depart="190.00" departLane="gneE6_0" departPos="5.10" departSpeed="0.00" departDelay="0.00" arrival="274.00" arrivalLane="gneE1_1" arrivalPos="282.05" arrivalSpeed="13.56" duration="84.00" routeLength="595.27" waitingTime="15.00" waitingCount="1" stopTime="0.00" timeLoss="40.36" rerouteNo="0" devices="tripinfo_62" vType="passenger" speedFactor="1.00" vaporized=""/>
    <tripinfo id="60" depart="179.00" departLane="gneE6_0" departPos="5.10" departSpeed="0.00" departDelay="0.00" arrival="275.00" arrivalLane="gneE7_1" arrivalPos="282.05" arrivalSpeed="14.15" duration="96.00" routeLength="567.94" waitingTime="28.00" waitingCount="1" stopTime="0.00" timeLoss="55.72" rerouteNo="0" devices="tripinfo_60" vType="passenger" speedFactor="1.04" vaporized=""/>
    <tripinfo id="57" depart="167.00" departLane="gneE6_0" departPos="5.10" departSpeed="0.00" departDelay="9.00" arrival="276.00" arrivalLane="gneE7_0" arrivalPos="282.05" arrivalSpeed="11.21" duration="109.00" routeLength="567.94" waitingTime="37.00" waitingCount="1" stopTime="0.00" timeLoss="58.41" rerouteNo="0" devices="tripinfo_57" vType="passenger" speedFactor="0.81" vaporized=""/>
    <tripinfo id="64" depart="195.00" departLane="gneE6_0" departPos="5.10" departSpeed="0.00" departDelay="3.00" arrival="277.00" arrivalLane="gneE7_1" arrivalPos="282.05" arrivalSpeed="14.05" duration="82.00" routeLength="567.94" waitingTime="13.00" waitingCount="1" stopTime="0.00" timeLoss="41.38" rerouteNo="0" devices="tripinfo_64" vType="passenger" speedFactor="1.02" vaporized=""/>
    <tripinfo id="67" depart="200.00" departLane="gneE6_0" departPos="5.10" departSpeed="0.00" departDelay="2.00" arrival="278.00" arrivalLane="gneE7_0" arrivalPos="282.05" arrivalSpeed="14.48" duration="78.00" routeLength="567.94" waitingTime="12.00" waitingCount="1" stopTime="0.00" timeLoss="39.40" rerouteNo="0" devices="tripinfo_67" vType="passenger" speedFactor="1.07" vaporized=""/>
    <tripinfo id="68" depart="205.00" departLane="gneE6_0" departPos="5.10" departSpeed="0.00" departDelay="6.00" arrival="280.00" arrivalLane="gneE7_0" arrivalPos="282.05" arrivalSpeed="14.33" duration="75.00" routeLength="567.94" waitingTime="8.00" waitingCount="1" stopTime="0.00" timeLoss="35.38" rerouteNo="0" devices="tripinfo_68" vType="passenger" speedFactor="1.05" vaporized=""/>
    <tripinfo id="72" depart="231.00" departLane="gneE6_0" departPos="5.10" departSpeed="0.00" departDelay="0.00" arrival="284.00" arrivalLane="gneE1_0" arrivalPos="282.05" arrivalSpeed="14.32" duration="53.00" routeLength="595.27" waitingTime="0.00" waitingCount="0" stopTime="0.00" timeLoss="12.19" rerouteNo="0" devices="tripinfo_72" vType="passenger" speedFactor="1.06" vaporized=""/>
    <tripinfo id="69" depart="210.00" departLane="gneE6_0" departPos="5.10" departSpeed="0.00" departDelay="9.00" arrival="284.00" arrivalLane="gneE7_0" arrivalPos="282.05" arrivalSpeed="12.44" duration="74.00" routeLength="567.94" waitingTime="4.00" waitingCount="1" stopTime="0.00" timeLoss="27.62" rerouteNo="0" devices="tripinfo_69" vType="passenger" speedFactor="0.90" vaporized=""/>
    <tripinfo id="73" depart="232.00" departLane="gneE2_0" departPos="5.10" departSpeed="0.00" departDelay="0.00" arrival="290.00" arrivalLane="gneE3_0" arrivalPos="282.05" arrivalSpeed="11.81" duration="58.00" routeLength="567.94" waitingTime="0.00" waitingCount="0" stopTime="0.00" timeLoss="10.04" rerouteNo="0" devices="tripinfo_73" vType="passenger" speedFactor="0.86" vaporized=""/>
    <tripinfo id="74" depart="236.00" departLane="gneE6_0" departPos="5.10" departSpeed="0.00" departDelay="2.00" arrival="294.00" arrivalLane="gneE3_1" arrivalPos="282.05" arrivalSpeed="13.63" duration="58.00" routeLength="597.64" waitingTime="0.00" waitingCount="0" stopTime="0.00" timeLoss="14.82" rerouteNo="0" devices="tripinfo_74" vType="passenger" speedFactor="1.01" vaporized=""/>
    <tripinfo id="71" depart="207.00" departLane="gneE2_0" departPos="5.10" departSpeed="0.00" departDelay="0.00" arrival="296.00" arrivalLane="gneE7_0" arrivalPos="282.05" arrivalSpeed="13.70" duration="89.00" routeLength="597.64" waitingTime="19.00" waitingCount="1" stopTime="0.00" timeLoss="45.37" rerouteNo="0" devices="tripinfo_71" vType="passenger" speedFactor="1.00" vaporized=""/>